# vtk DataFile Version 2.0
 Generated by Peano3 output component $Revision: 1.2 $ Author: Tobias Weinzierl
 ASCII
 

DATASET UNSTRUCTURED_GRID
POINTS 2500 float

0.92  0.96  0
0.96  0.96  0
0.92  1  0
0.96  1  0
0.96  0.96  0
1  0.96  0
0.96  1  0
1  1  0
0.96  0.92  0
1  0.92  0
0.96  0.96  0
1  0.96  0
0.92  0.92  0
0.96  0.92  0
0.92  0.96  0
0.96  0.96  0
0.88  0.92  0
0.92  0.92  0
0.88  0.96  0
0.92  0.96  0
0.84  0.92  0
0.88  0.92  0
0.84  0.96  0
0.88  0.96  0
0.8  0.92  0
0.84  0.92  0
0.8  0.96  0
0.84  0.96  0
0.8  0.96  0
0.84  0.96  0
0.8  1  0
0.84  1  0
0.84  0.96  0
0.88  0.96  0
0.84  1  0
0.88  1  0
0.88  0.96  0
0.92  0.96  0
0.88  1  0
0.92  1  0
0.68  0.96  0
0.72  0.96  0
0.68  1  0
0.72  1  0
0.72  0.96  0
0.76  0.96  0
0.72  1  0
0.76  1  0
0.76  0.96  0
0.8  0.96  0
0.76  1  0
0.8  1  0
0.76  0.92  0
0.8  0.92  0
0.76  0.96  0
0.8  0.96  0
0.72  0.92  0
0.76  0.92  0
0.72  0.96  0
0.76  0.96  0
0.68  0.92  0
0.72  0.92  0
0.68  0.96  0
0.72  0.96  0
0.68  0.8  0
0.72  0.8  0
0.68  0.84  0
0.72  0.84  0
0.72  0.8  0
0.76  0.8  0
0.72  0.84  0
0.76  0.84  0
0.76  0.8  0
0.8  0.8  0
0.76  0.84  0
0.8  0.84  0
0.68  0.84  0
0.72  0.84  0
0.68  0.88  0
0.72  0.88  0
0.72  0.84  0
0.76  0.84  0
0.72  0.88  0
0.76  0.88  0
0.76  0.84  0
0.8  0.84  0
0.76  0.88  0
0.8  0.88  0
0.68  0.88  0
0.72  0.88  0
0.68  0.92  0
0.72  0.92  0
0.72  0.88  0
0.76  0.88  0
0.72  0.92  0
0.76  0.92  0
0.76  0.88  0
0.8  0.88  0
0.76  0.92  0
0.8  0.92  0
0.8  0.8  0
0.84  0.8  0
0.8  0.84  0
0.84  0.84  0
0.84  0.8  0
0.88  0.8  0
0.84  0.84  0
0.88  0.84  0
0.88  0.8  0
0.92  0.8  0
0.88  0.84  0
0.92  0.84  0
0.8  0.84  0
0.84  0.84  0
0.8  0.88  0
0.84  0.88  0
0.84  0.84  0
0.88  0.84  0
0.84  0.88  0
0.88  0.88  0
0.88  0.84  0
0.92  0.84  0
0.88  0.88  0
0.92  0.88  0
0.8  0.88  0
0.84  0.88  0
0.8  0.92  0
0.84  0.92  0
0.84  0.88  0
0.88  0.88  0
0.84  0.92  0
0.88  0.92  0
0.88  0.88  0
0.92  0.88  0
0.88  0.92  0
0.92  0.92  0
0.92  0.88  0
0.96  0.88  0
0.92  0.92  0
0.96  0.92  0
0.96  0.88  0
1  0.88  0
0.96  0.92  0
1  0.92  0
0.96  0.84  0
1  0.84  0
0.96  0.88  0
1  0.88  0
0.92  0.84  0
0.96  0.84  0
0.92  0.88  0
0.96  0.88  0
0.92  0.8  0
0.96  0.8  0
0.92  0.84  0
0.96  0.84  0
0.96  0.8  0
1  0.8  0
0.96  0.84  0
1  0.84  0
0.96  0.76  0
1  0.76  0
0.96  0.8  0
1  0.8  0
0.92  0.76  0
0.96  0.76  0
0.92  0.8  0
0.96  0.8  0
0.92  0.72  0
0.96  0.72  0
0.92  0.76  0
0.96  0.76  0
0.96  0.72  0
1  0.72  0
0.96  0.76  0
1  0.76  0
0.96  0.68  0
1  0.68  0
0.96  0.72  0
1  0.72  0
0.92  0.68  0
0.96  0.68  0
0.92  0.72  0
0.96  0.72  0
0.8  0.68  0
0.84  0.68  0
0.8  0.72  0
0.84  0.72  0
0.84  0.68  0
0.88  0.68  0
0.84  0.72  0
0.88  0.72  0
0.88  0.68  0
0.92  0.68  0
0.88  0.72  0
0.92  0.72  0
0.8  0.72  0
0.84  0.72  0
0.8  0.76  0
0.84  0.76  0
0.84  0.72  0
0.88  0.72  0
0.84  0.76  0
0.88  0.76  0
0.88  0.72  0
0.92  0.72  0
0.88  0.76  0
0.92  0.76  0
0.8  0.76  0
0.84  0.76  0
0.8  0.8  0
0.84  0.8  0
0.84  0.76  0
0.88  0.76  0
0.84  0.8  0
0.88  0.8  0
0.88  0.76  0
0.92  0.76  0
0.88  0.8  0
0.92  0.8  0
0.68  0.68  0
0.72  0.68  0
0.68  0.72  0
0.72  0.72  0
0.72  0.68  0
0.76  0.68  0
0.72  0.72  0
0.76  0.72  0
0.76  0.68  0
0.8  0.68  0
0.76  0.72  0
0.8  0.72  0
0.68  0.72  0
0.72  0.72  0
0.68  0.76  0
0.72  0.76  0
0.72  0.72  0
0.76  0.72  0
0.72  0.76  0
0.76  0.76  0
0.76  0.72  0
0.8  0.72  0
0.76  0.76  0
0.8  0.76  0
0.68  0.76  0
0.72  0.76  0
0.68  0.8  0
0.72  0.8  0
0.72  0.76  0
0.76  0.76  0
0.72  0.8  0
0.76  0.8  0
0.76  0.76  0
0.8  0.76  0
0.76  0.8  0
0.8  0.8  0
0.56  0.68  0
0.6  0.68  0
0.56  0.72  0
0.6  0.72  0
0.6  0.68  0
0.64  0.68  0
0.6  0.72  0
0.64  0.72  0
0.64  0.68  0
0.68  0.68  0
0.64  0.72  0
0.68  0.72  0
0.56  0.72  0
0.6  0.72  0
0.56  0.76  0
0.6  0.76  0
0.6  0.72  0
0.64  0.72  0
0.6  0.76  0
0.64  0.76  0
0.64  0.72  0
0.68  0.72  0
0.64  0.76  0
0.68  0.76  0
0.56  0.76  0
0.6  0.76  0
0.56  0.8  0
0.6  0.8  0
0.6  0.76  0
0.64  0.76  0
0.6  0.8  0
0.64  0.8  0
0.64  0.76  0
0.68  0.76  0
0.64  0.8  0
0.68  0.8  0
0.44  0.68  0
0.48  0.68  0
0.44  0.72  0
0.48  0.72  0
0.48  0.68  0
0.52  0.68  0
0.48  0.72  0
0.52  0.72  0
0.52  0.68  0
0.56  0.68  0
0.52  0.72  0
0.56  0.72  0
0.44  0.72  0
0.48  0.72  0
0.44  0.76  0
0.48  0.76  0
0.48  0.72  0
0.52  0.72  0
0.48  0.76  0
0.52  0.76  0
0.52  0.72  0
0.56  0.72  0
0.52  0.76  0
0.56  0.76  0
0.44  0.76  0
0.48  0.76  0
0.44  0.8  0
0.48  0.8  0
0.48  0.76  0
0.52  0.76  0
0.48  0.8  0
0.52  0.8  0
0.52  0.76  0
0.56  0.76  0
0.52  0.8  0
0.56  0.8  0
0.32  0.68  0
0.36  0.68  0
0.32  0.72  0
0.36  0.72  0
0.36  0.68  0
0.4  0.68  0
0.36  0.72  0
0.4  0.72  0
0.4  0.68  0
0.44  0.68  0
0.4  0.72  0
0.44  0.72  0
0.32  0.72  0
0.36  0.72  0
0.32  0.76  0
0.36  0.76  0
0.36  0.72  0
0.4  0.72  0
0.36  0.76  0
0.4  0.76  0
0.4  0.72  0
0.44  0.72  0
0.4  0.76  0
0.44  0.76  0
0.32  0.76  0
0.36  0.76  0
0.32  0.8  0
0.36  0.8  0
0.36  0.76  0
0.4  0.76  0
0.36  0.8  0
0.4  0.8  0
0.4  0.76  0
0.44  0.76  0
0.4  0.8  0
0.44  0.8  0
0.32  0.8  0
0.36  0.8  0
0.32  0.84  0
0.36  0.84  0
0.36  0.8  0
0.4  0.8  0
0.36  0.84  0
0.4  0.84  0
0.4  0.8  0
0.44  0.8  0
0.4  0.84  0
0.44  0.84  0
0.32  0.84  0
0.36  0.84  0
0.32  0.88  0
0.36  0.88  0
0.36  0.84  0
0.4  0.84  0
0.36  0.88  0
0.4  0.88  0
0.4  0.84  0
0.44  0.84  0
0.4  0.88  0
0.44  0.88  0
0.32  0.88  0
0.36  0.88  0
0.32  0.92  0
0.36  0.92  0
0.36  0.88  0
0.4  0.88  0
0.36  0.92  0
0.4  0.92  0
0.4  0.88  0
0.44  0.88  0
0.4  0.92  0
0.44  0.92  0
0.44  0.8  0
0.48  0.8  0
0.44  0.84  0
0.48  0.84  0
0.48  0.8  0
0.52  0.8  0
0.48  0.84  0
0.52  0.84  0
0.52  0.8  0
0.56  0.8  0
0.52  0.84  0
0.56  0.84  0
0.44  0.84  0
0.48  0.84  0
0.44  0.88  0
0.48  0.88  0
0.48  0.84  0
0.52  0.84  0
0.48  0.88  0
0.52  0.88  0
0.52  0.84  0
0.56  0.84  0
0.52  0.88  0
0.56  0.88  0
0.44  0.88  0
0.48  0.88  0
0.44  0.92  0
0.48  0.92  0
0.48  0.88  0
0.52  0.88  0
0.48  0.92  0
0.52  0.92  0
0.52  0.88  0
0.56  0.88  0
0.52  0.92  0
0.56  0.92  0
0.56  0.8  0
0.6  0.8  0
0.56  0.84  0
0.6  0.84  0
0.6  0.8  0
0.64  0.8  0
0.6  0.84  0
0.64  0.84  0
0.64  0.8  0
0.68  0.8  0
0.64  0.84  0
0.68  0.84  0
0.56  0.84  0
0.6  0.84  0
0.56  0.88  0
0.6  0.88  0
0.6  0.84  0
0.64  0.84  0
0.6  0.88  0
0.64  0.88  0
0.64  0.84  0
0.68  0.84  0
0.64  0.88  0
0.68  0.88  0
0.56  0.88  0
0.6  0.88  0
0.56  0.92  0
0.6  0.92  0
0.6  0.88  0
0.64  0.88  0
0.6  0.92  0
0.64  0.92  0
0.64  0.88  0
0.68  0.88  0
0.64  0.92  0
0.68  0.92  0
0.64  0.92  0
0.68  0.92  0
0.64  0.96  0
0.68  0.96  0
0.6  0.92  0
0.64  0.92  0
0.6  0.96  0
0.64  0.96  0
0.56  0.92  0
0.6  0.92  0
0.56  0.96  0
0.6  0.96  0
0.56  0.96  0
0.6  0.96  0
0.56  1  0
0.6  1  0
0.6  0.96  0
0.64  0.96  0
0.6  1  0
0.64  1  0
0.64  0.96  0
0.68  0.96  0
0.64  1  0
0.68  1  0
0.44  0.96  0
0.48  0.96  0
0.44  1  0
0.48  1  0
0.48  0.96  0
0.52  0.96  0
0.48  1  0
0.52  1  0
0.52  0.96  0
0.56  0.96  0
0.52  1  0
0.56  1  0
0.52  0.92  0
0.56  0.92  0
0.52  0.96  0
0.56  0.96  0
0.48  0.92  0
0.52  0.92  0
0.48  0.96  0
0.52  0.96  0
0.44  0.92  0
0.48  0.92  0
0.44  0.96  0
0.48  0.96  0
0.4  0.92  0
0.44  0.92  0
0.4  0.96  0
0.44  0.96  0
0.36  0.92  0
0.4  0.92  0
0.36  0.96  0
0.4  0.96  0
0.32  0.92  0
0.36  0.92  0
0.32  0.96  0
0.36  0.96  0
0.32  0.96  0
0.36  0.96  0
0.32  1  0
0.36  1  0
0.36  0.96  0
0.4  0.96  0
0.36  1  0
0.4  1  0
0.4  0.96  0
0.44  0.96  0
0.4  1  0
0.44  1  0
0.2  0.96  0
0.24  0.96  0
0.2  1  0
0.24  1  0
0.24  0.96  0
0.28  0.96  0
0.24  1  0
0.28  1  0
0.28  0.96  0
0.32  0.96  0
0.28  1  0
0.32  1  0
0.28  0.92  0
0.32  0.92  0
0.28  0.96  0
0.32  0.96  0
0.24  0.92  0
0.28  0.92  0
0.24  0.96  0
0.28  0.96  0
0.2  0.92  0
0.24  0.92  0
0.2  0.96  0
0.24  0.96  0
0.16  0.92  0
0.2  0.92  0
0.16  0.96  0
0.2  0.96  0
0.12  0.92  0
0.16  0.92  0
0.12  0.96  0
0.16  0.96  0
0.08  0.92  0
0.12  0.92  0
0.08  0.96  0
0.12  0.96  0
0.08  0.96  0
0.12  0.96  0
0.08  1  0
0.12  1  0
0.12  0.96  0
0.16  0.96  0
0.12  1  0
0.16  1  0
0.16  0.96  0
0.2  0.96  0
0.16  1  0
0.2  1  0
-3.46945e-17  0.96  0
0.04  0.96  0
-3.46945e-17  1  0
0.04  1  0
0.04  0.96  0
0.08  0.96  0
0.04  1  0
0.08  1  0
0.04  0.92  0
0.08  0.92  0
0.04  0.96  0
0.08  0.96  0
-3.46945e-17  0.92  0
0.04  0.92  0
-3.46945e-17  0.96  0
0.04  0.96  0
-3.46945e-17  0.88  0
0.04  0.88  0
-3.46945e-17  0.92  0
0.04  0.92  0
0.04  0.88  0
0.08  0.88  0
0.04  0.92  0
0.08  0.92  0
0.04  0.84  0
0.08  0.84  0
0.04  0.88  0
0.08  0.88  0
-3.46945e-17  0.84  0
0.04  0.84  0
-3.46945e-17  0.88  0
0.04  0.88  0
-3.46945e-17  0.8  0
0.04  0.8  0
-3.46945e-17  0.84  0
0.04  0.84  0
0.04  0.8  0
0.08  0.8  0
0.04  0.84  0
0.08  0.84  0
0.08  0.8  0
0.12  0.8  0
0.08  0.84  0
0.12  0.84  0
0.12  0.8  0
0.16  0.8  0
0.12  0.84  0
0.16  0.84  0
0.16  0.8  0
0.2  0.8  0
0.16  0.84  0
0.2  0.84  0
0.08  0.84  0
0.12  0.84  0
0.08  0.88  0
0.12  0.88  0
0.12  0.84  0
0.16  0.84  0
0.12  0.88  0
0.16  0.88  0
0.16  0.84  0
0.2  0.84  0
0.16  0.88  0
0.2  0.88  0
0.08  0.88  0
0.12  0.88  0
0.08  0.92  0
0.12  0.92  0
0.12  0.88  0
0.16  0.88  0
0.12  0.92  0
0.16  0.92  0
0.16  0.88  0
0.2  0.88  0
0.16  0.92  0
0.2  0.92  0
0.2  0.8  0
0.24  0.8  0
0.2  0.84  0
0.24  0.84  0
0.24  0.8  0
0.28  0.8  0
0.24  0.84  0
0.28  0.84  0
0.28  0.8  0
0.32  0.8  0
0.28  0.84  0
0.32  0.84  0
0.2  0.84  0
0.24  0.84  0
0.2  0.88  0
0.24  0.88  0
0.24  0.84  0
0.28  0.84  0
0.24  0.88  0
0.28  0.88  0
0.28  0.84  0
0.32  0.84  0
0.28  0.88  0
0.32  0.88  0
0.2  0.88  0
0.24  0.88  0
0.2  0.92  0
0.24  0.92  0
0.24  0.88  0
0.28  0.88  0
0.24  0.92  0
0.28  0.92  0
0.28  0.88  0
0.32  0.88  0
0.28  0.92  0
0.32  0.92  0
0.2  0.68  0
0.24  0.68  0
0.2  0.72  0
0.24  0.72  0
0.24  0.68  0
0.28  0.68  0
0.24  0.72  0
0.28  0.72  0
0.28  0.68  0
0.32  0.68  0
0.28  0.72  0
0.32  0.72  0
0.2  0.72  0
0.24  0.72  0
0.2  0.76  0
0.24  0.76  0
0.24  0.72  0
0.28  0.72  0
0.24  0.76  0
0.28  0.76  0
0.28  0.72  0
[...]
CELL_DATA 625

SCALARS Q float 5
LOOKUP_TABLE default
1.5 -4.00123e-09 -8.68556e-09 0 1.5 
1.5 3.16715e-09 3.11145e-09 0 1.5 
1.5 -9.92292e-09 -4.67791e-09 0 1.5 
1.5 7.74873e-09 9.19019e-09 0 1.5 
1.5 -5.60615e-09 -1.00961e-08 0 1.5 
1.5 2.5709e-08 2.89062e-08 0 1.5 
1.5 -2.17901e-07 -2.24943e-07 0 1.5 
1.5 2.81117e-08 5.87828e-08 0 1.5 
1.5 -2.27385e-09 -6.02563e-09 0 1.5 
1.5 2.04014e-09 9.33811e-09 0 1.5 
1.5 -4.12386e-06 -7.94712e-06 0 1.5 
1.5 1.12329e-06 2.04419e-06 0 1.5 
1.5 -2.25906e-07 -4.06342e-07 0 1.5 
1.5 1.2566e-06 1.31581e-06 0 1.5 
1.5 -5.4817e-06 -5.84483e-06 0 1.5 
1.50001 1.85575e-05 2.02647e-05 0 1.50001 
1.49992 -0.000234394 -0.000234512 0 1.49992 
1.50005 0.000153981 0.000154097 0 1.50005 
1.49998 -6.13831e-05 -6.07915e-05 0 1.49998 
1.50005 0.000143357 0.000145747 0 1.50005 
1.49998 -6.1143e-05 -6.17307e-05 0 1.49998 
1.50001 1.94956e-05 1.94934e-05 0 1.50001 
1.49998 -5.69732e-05 -5.88394e-05 0 1.49998 
1.50001 1.94936e-05 1.98747e-05 0 1.50001 
1.5 -5.21817e-06 -5.2586e-06 0 1.5 
1.50001 1.96957e-05 1.93931e-05 0 1.50001 
1.5 -5.6856e-06 -5.61307e-06 0 1.5 
1.5 1.60453e-06 1.60048e-06 0 1.5 
1.5 -5.24242e-06 -5.22816e-06 0 1.5 
1.5 1.28654e-06 1.30501e-06 0 1.5 
1.5 -3.2409e-07 -3.38376e-07 0 1.5 
1.5 1.15367e-06 1.16024e-06 0 1.5 
1.5 -2.21137e-07 -2.30642e-07 0 1.5 
1.5 4.50017e-08 5.45273e-08 0 1.5 
1.5 -1.9829e-08 -2.00822e-08 0 1.5 
1.5 1.92874e-08 7.95548e-09 0 1.5 
1.5 -5.03179e-08 -2.32349e-08 0 1.5 
1.5 1.00033e-07 1.02452e-07 0 1.5 
1.5 -4.88562e-07 -4.68074e-07 0 1.5 
1.5 2.00133e-07 1.06451e-07 0 1.5 
1.5 -7.49154e-07 -3.79105e-07 0 1.5 
1.5 1.88578e-06 1.73306e-06 0 1.5 
1.5 -5.48588e-06 -4.91605e-06 0 1.5 
1.5 2.14857e-06 1.08496e-06 0 1.5 
1.5 -4.1638e-06 -2.11211e-06 0 1.5 
1.5 9.94031e-06 8.95859e-06 0 1.5 
1.49999 -6.9776e-06 -3.13866e-05 0 1.49999 
1.50002 4.69165e-05 4.97362e-05 0 1.50002 
1.49999 -2.5116e-05 -2.44592e-05 0 1.49999 
1.50004 0.000107359 0.000105286 0 1.50004 
1.49998 -4.61541e-05 -4.42093e-05 0 1.49998 
1.50001 1.64676e-05 1.55438e-05 0 1.50001 
1.49998 -5.749e-05 -5.5881e-05 0 1.49998 
1.50001 1.93353e-05 1.86847e-05 0 1.50001 
1.5 -6.02507e-06 -5.80911e-06 0 1.5 
1.49837 -0.00510026 -0.00477552 0 1.49837 
1.50064 0.00215086 0.0018633 0 1.50064 
1.49989 -0.000432031 -0.000325986 0 1.49989 
1.50063 0.00207757 0.00196616 0 1.50063 
1.49996 -0.000204884 -0.000154524 0 1.49996 
1.49994 -0.000149866 -0.000157724 0 1.49994 
1.49999 -9.9566e-05 -9.47259e-05 0 1.49999 
1.49992 -0.000231066 -0.000233012 0 1.49992 
1.50005 0.000143063 0.000140921 0 1.50005 
1.49973 -0.00139424 -0.0013848 0 1.49973 
1.50965 0.0276014 0.0273098 0 1.50965 
1.50034 0.000947655 0.00140665 0 1.50034 
1.50944 0.0247313 0.0287886 0 1.50944 
1.50035 0.00124509 0.00113809 0 1.50035 
1.49816 -0.00557299 -0.00558453 0 1.49816 
1.49949 -0.000746764 -0.00183996 0 1.49949 
1.49828 -0.00502449 -0.00536591 0 1.49828 
1.50065 0.00201598 0.00210487 0 1.50065 
1.38058 -0.240595 -0.371711 0 1.38058 
1.41797 -0.184883 -0.241193 0 1.41797 
1.46312 -0.0895514 -0.103965 0 1.46312 
1.43916 -0.123035 -0.192122 0 1.43916 
1.47458 -0.0579145 -0.0765318 0 1.47458 
1.50297 0.00525907 0.00916951 0 1.50297 
1.48889 -0.0227911 -0.0357179 0 1.48889 
1.50674 0.0135778 0.0218699 0 1.50674 
1.50785 0.0194425 0.0250927 0 1.50785 
1.33424 -0.21118 -0.590069 0 1.33424 
1.3453 -0.229237 -0.536328 0 1.3453 
1.35864 -0.245403 -0.468276 0 1.35864 
1.36949 -0.148284 -0.466665 0 1.36949 
1.38847 -0.158325 -0.391062 0 1.38847 
1.40974 -0.156085 -0.302045 0 1.40974 
1.42359 -0.0773456 -0.277323 0 1.42359 
1.44188 -0.0771837 -0.205418 0 1.44188 
1.464 -0.0607542 -0.121295 0 1.464 
1.4777 -0.0218104 -0.081413 0 1.4777 
1.48982 -0.0138725 -0.0351417 0 1.48982 
1.50237 0.00347466 0.00923194 0 1.50237 
1.50654 0.00492406 0.0254107 0 1.50654 
1.50861 0.0101315 0.0322584 0 1.50861 
1.50691 0.0112253 0.0247764 0 1.50691 
1.50371 0.00388428 0.0136585 0 1.50371 
1.50087 0.00177343 0.00284967 0 1.50087 
1.49823 -0.00249625 -0.00654825 0 1.49823 
1.50888 0.0171692 0.0305722 0 1.50888 
1.50506 0.0120498 0.0167227 0 1.50506 
1.49847 -0.00319334 -0.00535851 0 1.49847 
1.5014 0.00326738 0.00456553 0 1.5014 
1.49791 -0.00454635 -0.00724441 0 1.49791 
1.49946 -0.00168235 -0.00158661 0 1.49946 
1.4983 -0.00345605 -0.00588961 0 1.4983 
1.50018 0.000186462 0.000758163 0 1.50018 
1.50046 0.00125845 0.00148882 0 1.50046 
1.49875 -0.00359983 -0.00391976 0 1.49875 
1.50068 0.00197918 0.0022442 0 1.50068 
1.49996 -0.000161941 -0.000203154 0 1.49996 
1.50063 0.0017713 0.00210325 0 1.50063 
1.49989 -0.000331674 -0.000426259 0 1.49989 
1.49994 -0.000165676 -0.000159974 0 1.49994 
1.49983 -0.000478897 -0.000612202 0 1.49983 
1.49998 -4.7093e-05 -2.85568e-05 0 1.49998 
1.50004 0.00011113 0.000114344 0 1.50004 
1.49998 -4.54254e-05 -5.0709e-05 0 1.49998 
1.50002 5.75313e-05 6.34146e-05 0 1.50002 
1.50003 7.59022e-05 0.000107051 0 1.50003 
1.5 -3.34196e-06 3.91776e-06 0 1.5 
1.49999 -1.85374e-05 -4.24412e-05 0 1.49999 
1.5 1.12398e-05 2.31302e-05 0 1.5 
1.49989 -0.000195684 -0.000468538 0 1.49989 
1.49993 -0.000179302 -0.000512975 0 1.49993 
1.50004 0.000104349 0.000231932 0 1.50004 
1.49982 -0.000471681 -0.000617441 0 1.49982 
1.50016 0.000464325 0.000568121 0 1.50016 
1.50061 0.00115562 0.00213756 0 1.50061 
1.49981 -0.000521647 -0.000879573 0 1.49981 
1.49854 -0.00198275 -0.00546735 0 1.49854 
1.49811 -0.00158141 -0.00673673 0 1.49811 
1.50035 0.000211372 0.000840842 0 1.50035 
1.50044 0.000543894 0.00258634 0 1.50044 
1.50018 0.000351947 0.00169911 0 1.50018 
1.49945 -0.000381037 -0.0052691 0 1.49945 
1.49982 -0.000178537 -0.00315329 0 1.49982 
1.5001 -3.30141e-05 -0.00130056 0 1.5001 
1.49837 -0.00087241 -0.00554848 0 1.49837 
1.49891 -0.000458757 -0.00340605 0 1.49891 
1.49994 0.000390819 0.000397588 0 1.49994 
1.50067 0.000200362 0.00302129 0 1.50067 
1.50064 0.000295389 0.00282049 0 1.50064 
1.50007 0.00106568 0.000637052 0 1.50007 
1.49957 7.226e-05 -0.003828 0 1.49957 
1.49927 9.57669e-05 -0.00583686 0 1.49927 
1.49923 -0.000118328 -0.00624478 0 1.49923 
1.50024 0.000126893 0.000618728 0 1.50024 
1.49998 0.00014641 -0.00102309 0 1.49998 
1.49921 0.000656681 -0.00260408 0 1.49921 
1.49855 1.49496e-05 -0.00512655 0 1.49855 
1.50294 -0.00159276 0.0107132 0 1.50294 
1.50343 -0.00481709 0.0130089 0 1.50343 
1.50336 0.00271622 0.0116175 0 1.50336 
1.50705 0.00170985 0.0259693 0 1.50705 
1.47622 0.0095034 -0.0859161 0 1.47622 
1.47218 0.0281532 -0.103875 0 1.47218 
1.46472 0.0311788 -0.13515 0 1.46472 
1.45656 0.0139036 -0.166246 0 1.45656 
1.45229 -0.00556546 -0.180852 0 1.45229 
1.49691 0.00124986 -0.0116302 0 1.49691 
1.4928 -0.00187997 -0.0261769 0 1.4928 
1.4932 -0.00281379 -0.0250412 0 1.4932 
1.50494 -0.00564 0.0191775 0 1.50494 
1.50623 -0.00203145 0.0243796 0 1.50623 
1.5066 0.000782515 0.0258289 0 1.5066 
1.45316 -0.015289 -0.176041 0 1.45316 
1.45759 -0.0238878 -0.15765 0 1.45759 
1.4667 -0.025089 -0.123598 0 1.4667 
1.4955 -0.0041443 -0.0164022 0 1.4955 
1.49929 -0.00184585 -0.00208784 0 1.49929 
1.50337 0.00199652 0.0132531 0 1.50337 
1.50704 0.00269967 0.0271798 0 1.50704 
1.50696 0.00418598 0.026442 0 1.50696 
1.50561 0.00391063 0.0212041 0 1.50561 
1.32584 -0.0177604 -0.678249 0 1.32584 
1.32262 -0.109624 -0.670052 0 1.32262 
1.3273 -0.172089 -0.635122 0 1.3273 
1.34274 -0.0271654 -0.585266 0 1.34274 
1.34471 -0.0797663 -0.570492 0 1.34471 
1.35398 -0.12216 -0.528602 0 1.35398 
1.3945 -0.0249263 -0.392456 0 1.3945 
1.39866 -0.050943 -0.373827 0 1.39866 
1.40804 -0.0705515 -0.335619 0 1.40804 
1.28303 0.0216256 -0.731568 0 1.28303 
1.30425 0.0473042 -0.700243 0 1.30425 
1.32348 0.0456178 -0.678728 0 1.32348 
1.34453 0.0525967 -0.550121 0 1.34453 
1.35236 0.063568 -0.549553 0 1.35236 
1.34961 0.0378794 -0.569625 0 1.34961 
1.41052 0.0552414 -0.33286 0 1.41052 
1.40727 0.0435895 -0.355539 0 1.40727 
1.39816 0.00892556 -0.384204 0 1.39816 
1.40849 0.0437004 -0.323267 0 1.40849 
1.40812 0.0164176 -0.317546 0 1.40812 
1.32651 0.0155832 -0.572115 0 1.32651 
1.33329 0.0357171 -0.563188 0 1.33329 
1.26549 0.00707567 -0.762149 0 1.26549 
1.25257 0.00282859 -0.782908 0 1.25257 
1.20675 -0.0168399 -0.909329 0 1.20675 
1.22006 -0.0349274 -0.885642 0 1.22006 
1.20666 -0.0693185 -0.922567 0 1.20666 
1.20312 -0.0288475 -0.929158 0 1.20312 
1.22136 -0.0247429 -0.892935 0 1.22136 
1.21925 -0.079849 -0.899254 0 1.21925 
1.22734 -0.148262 -0.892177 0 1.22734 
1.25406 -0.204888 -0.854293 0 1.25406 
1.28895 -0.200221 -0.802384 0 1.28895 
1.22317 -0.0980727 -0.892409 0 1.22317 
1.25745 -0.117166 -0.835783 0 1.25745 
1.30332 -0.109955 -0.758528 0 1.30332 
1.24022 -0.032063 -0.846253 0 1.24022 
1.27307 -0.0223095 -0.788391 0 1.27307 
1.3148 -0.00857778 -0.720711 0 1.3148 
1.32327 -0.136701 -0.758836 0 1.32327 
1.35707 -0.123175 -0.7019 0 1.35707 
1.36268 -0.224916 -0.650204 0 1.36268 
1.34438 -0.0760513 -0.692539 0 1.34438 
1.35059 -0.0931048 -0.676975 0 1.35059 
1.33439 -0.201133 -0.677974 0 1.33439 
1.34208 -0.0283658 -0.673206 0 1.34208 
1.33767 -0.116438 -0.66823 0 1.33767 
1.3243 -0.196573 -0.670694 0 1.3243 
1.34838 -0.412204 -0.803367 0 1.34838 
1.38964 -0.380759 -0.741593 0 1.38964 
1.4143 -0.401326 -0.649561 0 1.4143 
1.33441 -0.328406 -0.785826 0 1.33441 
1.37354 -0.294024 -0.734423 0 1.37354 
1.38854 -0.308964 -0.673288 0 1.38854 
1.31959 -0.230253 -0.783267 0 1.31959 
1.37023 -0.220632 -0.702766 0 1.37023 
1.38007 -0.256099 -0.653192 0 1.38007 
1.26351 -0.204084 -0.871021 0 1.26351 
1.27147 -0.291097 -0.867118 0 1.27147 
1.30436 -0.389584 -0.844964 0 1.30436 
1.25565 -0.192646 -0.875209 0 1.25565 
1.26034 -0.277127 -0.872322 0 1.26034 
1.28366 -0.30851 -0.843467 0 1.28366 
1.24273 -0.174243 -0.876353 0 1.24273 
1.25815 -0.260711 -0.859857 0 1.25815 
1.27872 -0.252219 -0.835759 0 1.27872 
1.23362 -0.0744045 -0.876962 0 1.23362 
1.23011 -0.0205658 -0.874207 0 1.23011 
1.23224 -0.0216861 -0.865693 0 1.23224 
1.24084 -0.0800888 -0.868872 0 1.24084 
1.24282 -0.0927518 -0.872359 0 1.24282 
1.22796 -0.021105 -0.87034 0 1.22796 
1.21767 -0.00395632 -0.871951 0 1.21767 
1.23186 -0.0814398 -0.898946 0 1.23186 
1.2599 -0.0265403 -0.763505 0 1.2599 
1.25762 0.0119147 -0.705999 0 1.25762 
1.33293 0.00722832 -0.369582 0 1.33293 
1.34155 -0.0125209 -0.340231 0 1.34155 
1.36751 -0.0108949 -0.432542 0 1.36751 
1.50541 -0.42077 -0.489501 0 1.50541 
1.70207 -1.10873 -0.099262 0 1.70207 
1.27186 -0.175126 -0.84928 0 1.27186 
1.2746 -0.337862 -1.00171 0 1.2746 
1.32128 -0.55164 -1.05607 0 1.32128 
1.24657 -0.206171 -0.924954 0 1.24657 
1.28036 -0.358275 -0.895034 0 1.28036 
1.33379 -0.468868 -0.851963 0 1.33379 
1.69348 -0.968304 -0.131423 0 1.69348 
1.6064 -0.787875 -0.321693 0 1.6064 
1.52083 -0.768222 -0.27172 0 1.52083 
1.42714 -0.745807 -0.842392 0 1.42714 
1.48841 -0.672917 -0.633064 0 1.48841 
1.47429 -0.635436 -0.515191 0 1.47429 
1.37865 -0.500501 -0.808727 0 1.37865 
1.42468 -0.512068 -0.729012 0 1.42468 
1.44161 -0.512298 -0.612114 0 1.44161 
1.45397 -0.774849 -0.208615 0 1.45397 
1.41826 -0.746137 -0.195787 0 1.41826 
1.39445 -0.715498 -0.160469 0 1.39445 
1.37459 -0.694752 -0.116461 0 1.37459 
1.35606 -0.689079 -0.0826056 0 1.35606 
1.34242 -0.681501 -0.0683849 0 1.34242 
1.33114 -0.673403 -0.0770916 0 1.33114 
1.33034 -0.64081 -0.0763779 0 1.33034 
1.36172 -0.513797 -0.0512297 0 1.36172 
1.42857 -0.694069 -0.389382 0 1.42857 
1.4048 -0.697006 -0.308096 0 1.4048 
1.39163 -0.674008 -0.263283 0 1.39163 
1.37396 -0.667418 -0.217441 0 1.37396 
1.35613 -0.665925 -0.179266 0 1.35613 
1.33686 -0.673907 -0.157348 0 1.33686 
1.32436 -0.672944 -0.146437 0 1.32436 
1.33339 -0.618179 -0.126908 0 1.33339 
1.37204 -0.474248 -0.0856274 0 1.37204 
1.41264 -0.594263 -0.48772 0 1.41264 
1.38823 -0.636254 -0.401823 0 1.38823 
1.37988 -0.618201 -0.358148 0 1.37988 
1.36648 -0.61778 -0.311162 0 1.36648 
1.35093 -0.629074 -0.26828 0 1.35093 
1.33449 -0.647028 -0.232705 0 1.33449 
1.32436 -0.6521 -0.1993 0 1.32436 
1.34033 -0.581578 -0.163452 0 1.34033 
1.38451 -0.422477 -0.112465 0 1.38451 
1.39617 -0.500034 -0.550437 0 1.39617 
1.3732 -0.566219 -0.477696 0 1.3732 
1.3685 -0.564294 -0.42678 0 1.3685 
1.36097 -0.57104 -0.372694 0 1.36097 
1.34927 -0.589139 -0.322068 0 1.34927 
1.33507 -0.613947 -0.283083 0 1.33507 
1.32672 -0.618695 -0.246492 0 1.32672 
1.34835 -0.531943 -0.199919 0 1.34835 
1.39884 -0.356165 -0.132679 0 1.39884 
1.37456 -0.419741 -0.598492 0 1.37456 
1.36014 -0.500497 -0.527853 0 1.36014 
1.35897 -0.513424 -0.470468 0 1.35897 
1.35531 -0.523729 -0.418796 0 1.35531 
1.34529 -0.546185 -0.373371 0 1.34529 
1.32922 -0.582104 -0.33917 0 1.32922 
1.32739 -0.573123 -0.298264 0 1.32739 
1.36224 -0.457316 -0.225467 0 1.36224 
1.42066 -0.266957 -0.127687 0 1.42066 
1.35658 -0.366368 -0.621042 0 1.35658 
1.34536 -0.435908 -0.570926 0 1.34536 
1.34608 -0.456176 -0.517465 0 1.34608 
1.3461 -0.470054 -0.467364 0 1.3461 
1.33543 -0.507549 -0.426096 0 1.33543 
1.32293 -0.545746 -0.388532 0 1.32293 
1.33979 -0.498157 -0.317801 0 1.33979 
1.3905 -0.349857 -0.206591 0 1.3905 
1.45153 -0.159662 -0.0885557 0 1.45153 
1.34858 -0.336963 -0.614066 0 1.34858 
1.34205 -0.387721 -0.572426 0 1.34205 
1.34376 -0.406221 -0.52819 0 1.34376 
1.34223 -0.428572 -0.486154 0 1.34223 
1.32988 -0.477414 -0.45233 0 1.32988 
1.33278 -0.482228 -0.392372 0 1.33278 
1.37099 -0.386021 -0.2828 0 1.37099 
1.4286 -0.221268 -0.150214 0 1.4286 
1.48188 -0.0579804 -0.0371454 0 1.48188 
1.32954 -0.291863 -0.642981 0 1.32954 
1.33319 -0.339093 -0.591828 0 1.33319 
1.33841 -0.359487 -0.544756 0 1.33841 
1.33462 -0.395465 -0.507776 0 1.33462 
1.33378 -0.424326 -0.453523 0 1.33378 
1.3613 -0.374999 -0.349799 0 1.3613 
1.4129 -0.246786 -0.210151 0 1.4129 
1.46733 -0.0953138 -0.0766189 0 1.46733 
1.50362 0.012235 0.00621389 0 1.50362 
1.31988 -0.248864 -0.649618 0 1.31988 
1.32494 -0.282938 -0.608333 0 1.32494 
1.33209 -0.309542 -0.558278 0 1.33209 
1.33894 -0.338856 -0.493778 0 1.33894 
1.36272 -0.321193 -0.390101 0 1.36272 
1.40807 -0.23215 -0.248184 0 1.40807 
1.46001 -0.105673 -0.104308 0 1.46001 
1.4998 4.36004e-05 -0.0022849 0 1.4998 
1.50878 0.0273413 0.0224706 0 1.50878 
1.50785 0.0267813 0.0147008 0 1.50785 
1.50293 0.00981445 0.00647889 0 1.50293 
1.49815 -0.00648643 -0.00359145 0 1.49815 
1.50661 0.021811 0.015293 0 1.50661 
1.49829 -0.0060947 -0.00334194 0 1.49829 
1.49977 -0.000572034 -0.000892087 0 1.49977 
1.49941 -0.00223754 -0.000863208 0 1.49941 
1.49892 -0.00336944 -0.00306912 0 1.49892 
1.50057 0.00191681 0.00156034 0 1.50057 
1.50042 0.00158231 0.000637315 0 1.50042 
1.5 -5.92359e-05 0.000110629 0 1.5 
1.49996 -0.000123528 -0.000125189 0 1.49996 
1.50032 0.00104394 0.000872399 0 1.50032 
1.49986 -0.000488052 -0.000366881 0 1.49986 
1.50005 0.000166031 0.000116952 0 1.50005 
1.49983 -0.000603935 -0.000451094 0 1.49983 
1.50003 0.000133212 8.61705e-05 0 1.50003 
1.5 -1.87001e-05 -6.80855e-06 0 1.5 
1.5 -2.83539e-07 -2.70926e-06 0 1.5 
1.5 1.63367e-06 1.1602e-06 0 1.5 
1.5 1.71651e-05 6.39855e-06 0 1.5 
1.49999 -4.96599e-05 -3.21355e-05 0 1.49999 
1.50002 7.26243e-05 5.62672e-05 0 1.50002 
1.49999 -3.57903e-05 -1.43009e-05 0 1.49999 
1.49999 -2.93046e-05 -6.62103e-06 0 1.49999 
1.50003 0.000125481 5.00348e-05 0 1.50003 
1.49994 -0.00023359 -0.000105885 0 1.49994 
1.50002 0.0001361 3.24056e-05 0 1.50002 
1.50004 0.000219234 5.5033e-05 0 1.50004 
1.49983 -0.000663984 -0.000259049 0 1.49983 
1.49892 -0.00425325 -0.00124558 0 1.49892 
1.49923 -0.00271281 -0.00116496 0 1.49923 
1.5005 0.00183255 0.000738783 0 1.5005 
1.49795 -0.00744756 -0.00347649 0 1.49795 
1.50035 0.00133276 0.000600166 0 1.50035 
1.50006 0.000185393 0.000100157 0 1.50006 
1.4992 -0.00270863 -0.00156535 0 1.4992 
1.50044 0.00155874 0.00081151 0 1.50044 
1.49986 -0.00050755 -0.000239505 0 1.49986 
1.45601 -0.154863 -0.0575368 0 1.45601 
1.4989 -0.00278437 -0.00179983 0 1.4989 
1.50833 0.0308413 0.0111204 0 1.50833 
1.47733 -0.0780348 -0.0362301 0 1.47733 
1.50757 0.0269082 0.0127636 0 1.50757 
1.50398 0.0142523 0.00673862 0 1.50398 
1.49755 -0.00877242 -0.00401424 0 1.49755 
1.50816 0.0286588 0.0148514 0 1.50816 
1.49931 -0.00267511 -0.00096094 0 1.49931 
1.41972 -0.300688 -0.0206147 0 1.41972 
1.47819 -0.0822792 -0.00211525 0 1.47819 
1.50792 0.0310889 0.000244539 0 1.50792 
1.42905 -0.266566 -0.0395082 0 1.42905 
1.48196 -0.0671345 -0.00837926 0 1.48196 
1.50767 0.0306363 0.00234105 0 1.50767 
1.44055 -0.218593 -0.0550655 0 1.44055 
1.48872 -0.0397487 -0.0105755 0 1.48872 
1.50869 0.0336275 0.00672604 0 1.50869 
1.50296 0.011401 -0.000589047 0 1.50296 
1.49816 -0.00712549 0.000498079 0 1.49816 
1.50044 0.00171321 -0.000142939 0 1.50044 
1.5029 0.0110399 0.00103426 0 1.5029 
1.49813 -0.00731809 -0.000304808 0 1.49813 
1.50041 0.00163129 -6.35096e-05 0 1.50041 
1.50148 0.00527646 0.00181884 0 1.50148 
1.49824 -0.00665845 -0.00155564 0 1.49824 
1.50059 0.00230313 0.000431202 0 1.50059 
1.4999 -0.000375969 -3.28479e-05 0 1.4999 
1.5 -6.81813e-05 -1.28527e-05 0 1.5 
1.49997 -0.000287147 -1.80787e-05 0 1.49997 
1.50001 8.06747e-05 6.36587e-05 0 1.50001 
1.49996 -0.00010416 -5.70907e-06 0 1.49996 
1.49999 -0.000131061 1.2827e-05 0 1.49999 
1.50002 8.42515e-05 1.65057e-06 0 1.50002 
1.49988 -0.000461758 2.15549e-05 0 1.49988 
1.49991 -0.000314237 8.74022e-05 0 1.49991 
1.50001 4.40979e-05 -2.99841e-05 0 1.50001 
1.49998 -0.00016763 4.69113e-06 0 1.49998 
1.50001 6.11375e-05 -4.45332e-05 0 1.50001 
1.50215 0.00840572 6.67175e-05 0 1.50215 
1.49869 -0.00517935 -0.000300327 0 1.49869 
1.50026 0.00104805 0.00017298 0 1.50026 
1.50205 0.00800709 0.00107882 0 1.50205 
1.49852 -0.00565739 -0.000200431 0 1.49852 
1.50044 0.00163834 -8.28893e-05 0 1.50044 
1.50247 0.00945514 -0.000310933 0 1.50247 
1.49819 -0.00683304 0.000431842 0 1.49819 
1.50056 0.00212767 -0.000153718 0 1.50056 
1.42978 -0.264716 0.0305517 0 1.42978 
1.48309 -0.0649928 0.0027571 0 1.48309 
1.50656 0.0259572 -0.000954702 0 1.50656 
1.41911 -0.300243 0.0203601 0 1.41911 
1.47981 -0.0773379 0.000153107 0 1.47981 
1.5079 0.0301707 -0.00272405 0 1.5079 
1.41519 -0.314509 0.00208985 0 1.41519 
1.47738 -0.085232 0.000147459 0 1.47738 
1.50858 0.0328237 -0.00153129 0 1.50858 
1.46931 -0.105338 0.0401762 0 1.46931 
1.50399 0.0146824 -0.00714025 0 1.50399 
1.50555 0.0198949 -0.00780814 0 1.50555 
1.4525 -0.169976 0.0542201 0 1.4525 
1.49508 -0.016227 0.00801946 0 1.49508 
1.5076 0.0286085 -0.00883111 0 1.5076 
1.44146 -0.220226 0.0444112 0 1.44146 
1.48687 -0.0476597 0.00964256 0 1.48687 
1.50686 0.027206 -0.00306039 0 1.50686 
1.49813 -0.00685725 0.00251456 0 1.49813 
1.50005 0.000276634 0.000113511 0 1.50005 
1.50019 0.000640084 -0.000382565 0 1.50019 
1.49997 -0.000451487 -0.000368664 0 1.49997 
1.49893 -0.00390715 0.00139007 0 1.49893 
1.5005 0.00187196 -0.00058884 0 1.5005 
1.50186 0.00680067 -0.00172751 0 1.50186 
1.49851 -0.00575052 0.000789424 0 1.49851 
1.5004 0.00157274 -6.03501e-05 0 1.5004 
1.49997 -9.97906e-05 -6.52787e-05 0 1.49997 
1.49999 -0.000152333 2.68931e-05 0 1.49999 
1.50002 0.000110827 -2.00247e-05 0 1.50002 
1.49986 -0.000525993 0.000144255 0 1.49986 
1.4999 -0.000363234 0.000189641 0 1.4999 
1.50003 0.00016853 -4.91056e-05 0 1.50003 
1.5 1.55075e-05 6.49498e-06 0 1.5 
1.50001 2.2142e-05 -5.13161e-05 0 1.50001 
1.50002 6.46298e-05 -3.154e-05 0 1.50002 
1.5 -2.79329e-05 6.07397e-06 0 1.5 
1.50041 0.00152441 0.000444722 0 1.50041 
1.50002 1.54166e-05 -0.000311331 0 1.50002 
1.49996 -0.00013236 0.000113103 0 1.49996 
1.49992 -0.00028725 0.000263391 0 1.49992 
1.50039 0.00139356 -0.000986801 0 1.50039 
1.4989 -0.00391394 0.00231052 0 1.4989 
1.50083 0.00299941 -0.000547932 0 1.50083 
1.5063 0.0219872 -0.0174063 0 1.5063 
1.4935 -0.0242175 0.0203107 0 1.4935 
1.50955 0.0320644 0.0032115 0 1.50955 
1.50422 0.0145656 -0.00676282 0 1.50422 
1.49784 -0.00761783 0.00098024 0 1.49784 
1.30258 -0.557967 0.0765798 0 1.30258 
1.38776 -0.342364 0.0643183 0 1.38776 
1.46807 -0.106172 0.0376618 0 1.46807 
1.4491 -0.170476 0.108256 0 1.4491 
1.37923 -0.378364 0.175224 0 1.37923 
1.30505 -0.56953 0.193777 0 1.30505 
1.25023 -0.693901 0.16095 0 1.25023 