# vtk DataFile Version 2.0
 Generated by Peano3 output component $Revision: 1.2 $ Author: Tobias Weinzierl
 ASCII
 

DATASET UNSTRUCTURED_GRID
POINTS 2500 float

0.92  0.96  0
0.96  0.96  0
0.92  1  0
0.96  1  0
0.96  0.96  0
1  0.96  0
0.96  1  0
1  1  0
0.96  0.92  0
1  0.92  0
0.96  0.96  0
1  0.96  0
0.92  0.92  0
0.96  0.92  0
0.92  0.96  0
0.96  0.96  0
0.88  0.92  0
0.92  0.92  0
0.88  0.96  0
0.92  0.96  0
0.84  0.92  0
0.88  0.92  0
0.84  0.96  0
0.88  0.96  0
0.8  0.92  0
0.84  0.92  0
0.8  0.96  0
0.84  0.96  0
0.8  0.96  0
0.84  0.96  0
0.8  1  0
0.84  1  0
0.84  0.96  0
0.88  0.96  0
0.84  1  0
0.88  1  0
0.88  0.96  0
0.92  0.96  0
0.88  1  0
0.92  1  0
0.68  0.96  0
0.72  0.96  0
0.68  1  0
0.72  1  0
0.72  0.96  0
0.76  0.96  0
0.72  1  0
0.76  1  0
0.76  0.96  0
0.8  0.96  0
0.76  1  0
0.8  1  0
0.76  0.92  0
0.8  0.92  0
0.76  0.96  0
0.8  0.96  0
0.72  0.92  0
0.76  0.92  0
0.72  0.96  0
0.76  0.96  0
0.68  0.92  0
0.72  0.92  0
0.68  0.96  0
0.72  0.96  0
0.68  0.8  0
0.72  0.8  0
0.68  0.84  0
0.72  0.84  0
0.72  0.8  0
0.76  0.8  0
0.72  0.84  0
0.76  0.84  0
0.76  0.8  0
0.8  0.8  0
0.76  0.84  0
0.8  0.84  0
0.68  0.84  0
0.72  0.84  0
0.68  0.88  0
0.72  0.88  0
0.72  0.84  0
0.76  0.84  0
0.72  0.88  0
0.76  0.88  0
0.76  0.84  0
0.8  0.84  0
0.76  0.88  0
0.8  0.88  0
0.68  0.88  0
0.72  0.88  0
0.68  0.92  0
0.72  0.92  0
0.72  0.88  0
0.76  0.88  0
0.72  0.92  0
0.76  0.92  0
0.76  0.88  0
0.8  0.88  0
0.76  0.92  0
0.8  0.92  0
0.8  0.8  0
0.84  0.8  0
0.8  0.84  0
0.84  0.84  0
0.84  0.8  0
0.88  0.8  0
0.84  0.84  0
0.88  0.84  0
0.88  0.8  0
0.92  0.8  0
0.88  0.84  0
0.92  0.84  0
0.8  0.84  0
0.84  0.84  0
0.8  0.88  0
0.84  0.88  0
0.84  0.84  0
0.88  0.84  0
0.84  0.88  0
0.88  0.88  0
0.88  0.84  0
0.92  0.84  0
0.88  0.88  0
0.92  0.88  0
0.8  0.88  0
0.84  0.88  0
0.8  0.92  0
0.84  0.92  0
0.84  0.88  0
0.88  0.88  0
0.84  0.92  0
0.88  0.92  0
0.88  0.88  0
0.92  0.88  0
0.88  0.92  0
0.92  0.92  0
0.92  0.88  0
0.96  0.88  0
0.92  0.92  0
0.96  0.92  0
0.96  0.88  0
1  0.88  0
0.96  0.92  0
1  0.92  0
0.96  0.84  0
1  0.84  0
0.96  0.88  0
1  0.88  0
0.92  0.84  0
0.96  0.84  0
0.92  0.88  0
0.96  0.88  0
0.92  0.8  0
0.96  0.8  0
0.92  0.84  0
0.96  0.84  0
0.96  0.8  0
1  0.8  0
0.96  0.84  0
1  0.84  0
0.96  0.76  0
1  0.76  0
0.96  0.8  0
1  0.8  0
0.92  0.76  0
0.96  0.76  0
0.92  0.8  0
0.96  0.8  0
0.92  0.72  0
0.96  0.72  0
0.92  0.76  0
0.96  0.76  0
0.96  0.72  0
1  0.72  0
0.96  0.76  0
1  0.76  0
0.96  0.68  0
1  0.68  0
0.96  0.72  0
1  0.72  0
0.92  0.68  0
0.96  0.68  0
0.92  0.72  0
0.96  0.72  0
0.8  0.68  0
0.84  0.68  0
0.8  0.72  0
0.84  0.72  0
0.84  0.68  0
0.88  0.68  0
0.84  0.72  0
0.88  0.72  0
0.88  0.68  0
0.92  0.68  0
0.88  0.72  0
0.92  0.72  0
0.8  0.72  0
0.84  0.72  0
0.8  0.76  0
0.84  0.76  0
0.84  0.72  0
0.88  0.72  0
0.84  0.76  0
0.88  0.76  0
0.88  0.72  0
0.92  0.72  0
0.88  0.76  0
0.92  0.76  0
0.8  0.76  0
0.84  0.76  0
0.8  0.8  0
0.84  0.8  0
0.84  0.76  0
0.88  0.76  0
0.84  0.8  0
0.88  0.8  0
0.88  0.76  0
0.92  0.76  0
0.88  0.8  0
0.92  0.8  0
0.68  0.68  0
0.72  0.68  0
0.68  0.72  0
0.72  0.72  0
0.72  0.68  0
0.76  0.68  0
0.72  0.72  0
0.76  0.72  0
0.76  0.68  0
0.8  0.68  0
0.76  0.72  0
0.8  0.72  0
0.68  0.72  0
0.72  0.72  0
0.68  0.76  0
0.72  0.76  0
0.72  0.72  0
0.76  0.72  0
0.72  0.76  0
0.76  0.76  0
0.76  0.72  0
0.8  0.72  0
0.76  0.76  0
0.8  0.76  0
0.68  0.76  0
0.72  0.76  0
0.68  0.8  0
0.72  0.8  0
0.72  0.76  0
0.76  0.76  0
0.72  0.8  0
0.76  0.8  0
0.76  0.76  0
0.8  0.76  0
0.76  0.8  0
0.8  0.8  0
0.56  0.68  0
0.6  0.68  0
0.56  0.72  0
0.6  0.72  0
0.6  0.68  0
0.64  0.68  0
0.6  0.72  0
0.64  0.72  0
0.64  0.68  0
0.68  0.68  0
0.64  0.72  0
0.68  0.72  0
0.56  0.72  0
0.6  0.72  0
0.56  0.76  0
0.6  0.76  0
0.6  0.72  0
0.64  0.72  0
0.6  0.76  0
0.64  0.76  0
0.64  0.72  0
0.68  0.72  0
0.64  0.76  0
0.68  0.76  0
0.56  0.76  0
0.6  0.76  0
0.56  0.8  0
0.6  0.8  0
0.6  0.76  0
0.64  0.76  0
0.6  0.8  0
0.64  0.8  0
0.64  0.76  0
0.68  0.76  0
0.64  0.8  0
0.68  0.8  0
0.44  0.68  0
0.48  0.68  0
0.44  0.72  0
0.48  0.72  0
0.48  0.68  0
0.52  0.68  0
0.48  0.72  0
0.52  0.72  0
0.52  0.68  0
0.56  0.68  0
0.52  0.72  0
0.56  0.72  0
0.44  0.72  0
0.48  0.72  0
0.44  0.76  0
0.48  0.76  0
0.48  0.72  0
0.52  0.72  0
0.48  0.76  0
0.52  0.76  0
0.52  0.72  0
0.56  0.72  0
0.52  0.76  0
0.56  0.76  0
0.44  0.76  0
0.48  0.76  0
0.44  0.8  0
0.48  0.8  0
0.48  0.76  0
0.52  0.76  0
0.48  0.8  0
0.52  0.8  0
0.52  0.76  0
0.56  0.76  0
0.52  0.8  0
0.56  0.8  0
0.32  0.68  0
0.36  0.68  0
0.32  0.72  0
0.36  0.72  0
0.36  0.68  0
0.4  0.68  0
0.36  0.72  0
0.4  0.72  0
0.4  0.68  0
0.44  0.68  0
0.4  0.72  0
0.44  0.72  0
0.32  0.72  0
0.36  0.72  0
0.32  0.76  0
0.36  0.76  0
0.36  0.72  0
0.4  0.72  0
0.36  0.76  0
0.4  0.76  0
0.4  0.72  0
0.44  0.72  0
0.4  0.76  0
0.44  0.76  0
0.32  0.76  0
0.36  0.76  0
0.32  0.8  0
0.36  0.8  0
0.36  0.76  0
0.4  0.76  0
0.36  0.8  0
0.4  0.8  0
0.4  0.76  0
0.44  0.76  0
0.4  0.8  0
0.44  0.8  0
0.32  0.8  0
0.36  0.8  0
0.32  0.84  0
0.36  0.84  0
0.36  0.8  0
0.4  0.8  0
0.36  0.84  0
0.4  0.84  0
0.4  0.8  0
0.44  0.8  0
0.4  0.84  0
0.44  0.84  0
0.32  0.84  0
0.36  0.84  0
0.32  0.88  0
0.36  0.88  0
0.36  0.84  0
0.4  0.84  0
0.36  0.88  0
0.4  0.88  0
0.4  0.84  0
0.44  0.84  0
0.4  0.88  0
0.44  0.88  0
0.32  0.88  0
0.36  0.88  0
0.32  0.92  0
0.36  0.92  0
0.36  0.88  0
0.4  0.88  0
0.36  0.92  0
0.4  0.92  0
0.4  0.88  0
0.44  0.88  0
0.4  0.92  0
0.44  0.92  0
0.44  0.8  0
0.48  0.8  0
0.44  0.84  0
0.48  0.84  0
0.48  0.8  0
0.52  0.8  0
0.48  0.84  0
0.52  0.84  0
0.52  0.8  0
0.56  0.8  0
0.52  0.84  0
0.56  0.84  0
0.44  0.84  0
0.48  0.84  0
0.44  0.88  0
0.48  0.88  0
0.48  0.84  0
0.52  0.84  0
0.48  0.88  0
0.52  0.88  0
0.52  0.84  0
0.56  0.84  0
0.52  0.88  0
0.56  0.88  0
0.44  0.88  0
0.48  0.88  0
0.44  0.92  0
0.48  0.92  0
0.48  0.88  0
0.52  0.88  0
0.48  0.92  0
0.52  0.92  0
0.52  0.88  0
0.56  0.88  0
0.52  0.92  0
0.56  0.92  0
0.56  0.8  0
0.6  0.8  0
0.56  0.84  0
0.6  0.84  0
0.6  0.8  0
0.64  0.8  0
0.6  0.84  0
0.64  0.84  0
0.64  0.8  0
0.68  0.8  0
0.64  0.84  0
0.68  0.84  0
0.56  0.84  0
0.6  0.84  0
0.56  0.88  0
0.6  0.88  0
0.6  0.84  0
0.64  0.84  0
0.6  0.88  0
0.64  0.88  0
0.64  0.84  0
0.68  0.84  0
0.64  0.88  0
0.68  0.88  0
0.56  0.88  0
0.6  0.88  0
0.56  0.92  0
0.6  0.92  0
0.6  0.88  0
0.64  0.88  0
0.6  0.92  0
0.64  0.92  0
0.64  0.88  0
0.68  0.88  0
0.64  0.92  0
0.68  0.92  0
0.64  0.92  0
0.68  0.92  0
0.64  0.96  0
0.68  0.96  0
0.6  0.92  0
0.64  0.92  0
0.6  0.96  0
0.64  0.96  0
0.56  0.92  0
0.6  0.92  0
0.56  0.96  0
0.6  0.96  0
0.56  0.96  0
0.6  0.96  0
0.56  1  0
0.6  1  0
0.6  0.96  0
0.64  0.96  0
0.6  1  0
0.64  1  0
0.64  0.96  0
0.68  0.96  0
0.64  1  0
0.68  1  0
0.44  0.96  0
0.48  0.96  0
0.44  1  0
0.48  1  0
0.48  0.96  0
0.52  0.96  0
0.48  1  0
0.52  1  0
0.52  0.96  0
0.56  0.96  0
0.52  1  0
0.56  1  0
0.52  0.92  0
0.56  0.92  0
0.52  0.96  0
0.56  0.96  0
0.48  0.92  0
0.52  0.92  0
0.48  0.96  0
0.52  0.96  0
0.44  0.92  0
0.48  0.92  0
0.44  0.96  0
0.48  0.96  0
0.4  0.92  0
0.44  0.92  0
0.4  0.96  0
0.44  0.96  0
0.36  0.92  0
0.4  0.92  0
0.36  0.96  0
0.4  0.96  0
0.32  0.92  0
0.36  0.92  0
0.32  0.96  0
0.36  0.96  0
0.32  0.96  0
0.36  0.96  0
0.32  1  0
0.36  1  0
0.36  0.96  0
0.4  0.96  0
0.36  1  0
0.4  1  0
0.4  0.96  0
0.44  0.96  0
0.4  1  0
0.44  1  0
0.2  0.96  0
0.24  0.96  0
0.2  1  0
0.24  1  0
0.24  0.96  0
0.28  0.96  0
0.24  1  0
0.28  1  0
0.28  0.96  0
0.32  0.96  0
0.28  1  0
0.32  1  0
0.28  0.92  0
0.32  0.92  0
0.28  0.96  0
0.32  0.96  0
0.24  0.92  0
0.28  0.92  0
0.24  0.96  0
0.28  0.96  0
0.2  0.92  0
0.24  0.92  0
0.2  0.96  0
0.24  0.96  0
0.16  0.92  0
0.2  0.92  0
0.16  0.96  0
0.2  0.96  0
0.12  0.92  0
0.16  0.92  0
0.12  0.96  0
0.16  0.96  0
0.08  0.92  0
0.12  0.92  0
0.08  0.96  0
0.12  0.96  0
0.08  0.96  0
0.12  0.96  0
0.08  1  0
0.12  1  0
0.12  0.96  0
0.16  0.96  0
0.12  1  0
0.16  1  0
0.16  0.96  0
0.2  0.96  0
0.16  1  0
0.2  1  0
-3.46945e-17  0.96  0
0.04  0.96  0
-3.46945e-17  1  0
0.04  1  0
0.04  0.96  0
0.08  0.96  0
0.04  1  0
0.08  1  0
0.04  0.92  0
0.08  0.92  0
0.04  0.96  0
0.08  0.96  0
-3.46945e-17  0.92  0
0.04  0.92  0
-3.46945e-17  0.96  0
0.04  0.96  0
-3.46945e-17  0.88  0
0.04  0.88  0
-3.46945e-17  0.92  0
0.04  0.92  0
0.04  0.88  0
0.08  0.88  0
0.04  0.92  0
0.08  0.92  0
0.04  0.84  0
0.08  0.84  0
0.04  0.88  0
0.08  0.88  0
-3.46945e-17  0.84  0
0.04  0.84  0
-3.46945e-17  0.88  0
0.04  0.88  0
-3.46945e-17  0.8  0
0.04  0.8  0
-3.46945e-17  0.84  0
0.04  0.84  0
0.04  0.8  0
0.08  0.8  0
0.04  0.84  0
0.08  0.84  0
0.08  0.8  0
0.12  0.8  0
0.08  0.84  0
0.12  0.84  0
0.12  0.8  0
0.16  0.8  0
0.12  0.84  0
0.16  0.84  0
0.16  0.8  0
0.2  0.8  0
0.16  0.84  0
0.2  0.84  0
0.08  0.84  0
0.12  0.84  0
0.08  0.88  0
0.12  0.88  0
0.12  0.84  0
0.16  0.84  0
0.12  0.88  0
0.16  0.88  0
0.16  0.84  0
0.2  0.84  0
0.16  0.88  0
0.2  0.88  0
0.08  0.88  0
0.12  0.88  0
0.08  0.92  0
0.12  0.92  0
0.12  0.88  0
0.16  0.88  0
0.12  0.92  0
0.16  0.92  0
0.16  0.88  0
0.2  0.88  0
0.16  0.92  0
0.2  0.92  0
0.2  0.8  0
0.24  0.8  0
0.2  0.84  0
0.24  0.84  0
0.24  0.8  0
0.28  0.8  0
0.24  0.84  0
0.28  0.84  0
0.28  0.8  0
0.32  0.8  0
0.28  0.84  0
0.32  0.84  0
0.2  0.84  0
0.24  0.84  0
0.2  0.88  0
0.24  0.88  0
0.24  0.84  0
0.28  0.84  0
0.24  0.88  0
0.28  0.88  0
0.28  0.84  0
0.32  0.84  0
0.28  0.88  0
0.32  0.88  0
0.2  0.88  0
0.24  0.88  0
0.2  0.92  0
0.24  0.92  0
0.24  0.88  0
0.28  0.88  0
0.24  0.92  0
0.28  0.92  0
0.28  0.88  0
0.32  0.88  0
0.28  0.92  0
0.32  0.92  0
0.2  0.68  0
0.24  0.68  0
0.2  0.72  0
0.24  0.72  0
0.24  0.68  0
0.28  0.68  0
0.24  0.72  0
0.28  0.72  0
0.28  0.68  0
0.32  0.68  0
0.28  0.72  0
0.32  0.72  0
0.2  0.72  0
0.24  0.72  0
0.2  0.76  0
0.24  0.76  0
0.24  0.72  0
0.28  0.72  0
0.24  0.76  0
0.28  0.76  0
0.28  0.72  0
[...]
CELL_DATA 625

SCALARS Q float 5
LOOKUP_TABLE default
1.5 -3.40452e-08 -6.33907e-08 0 1.5 
1.5 1.53375e-08 1.56368e-08 0 1.5 
1.5 -6.68787e-08 -3.663e-08 0 1.5 
1.5 1.85557e-07 1.86692e-07 0 1.5 
1.5 -6.21177e-07 -6.49199e-07 0 1.5 
1.5 2.00149e-06 2.12054e-06 0 1.5 
1.5 -5.84124e-06 -6.2743e-06 0 1.5 
1.5 1.40121e-06 2.70552e-06 0 1.5 
1.5 -4.48577e-07 -8.27613e-07 0 1.5 
1.5 1.26952e-07 2.33287e-07 0 1.5 
1.5 -4.33305e-06 -1.8421e-05 0 1.5 
1.5 7.15396e-06 1.69242e-05 0 1.5 
1.5 -3.7106e-06 -7.71749e-06 0 1.5 
1.5 1.39301e-05 1.53398e-05 0 1.5 
1.49999 -2.11014e-05 -2.43557e-05 0 1.49999 
1.5 -1.0105e-05 -8.57617e-06 0 1.5 
1.5005 0.00149685 0.0015307 0 1.5005 
1.4998 -0.000652215 -0.000650647 0 1.4998 
1.50003 0.000130048 0.000123149 0 1.50003 
1.49979 -0.000637469 -0.000672791 0 1.49979 
1.50003 0.000126099 0.000130703 0 1.50003 
1.50001 2.10359e-05 2.1463e-05 0 1.50001 
1.50004 0.000147637 0.000162252 0 1.50004 
1.50001 1.33079e-05 1.25533e-05 0 1.50001 
1.49999 -2.84831e-05 -2.8955e-05 0 1.49999 
1.50001 1.13156e-05 1.37478e-05 0 1.50001 
1.49999 -2.18052e-05 -2.20086e-05 0 1.49999 
1.5 1.16283e-05 1.13477e-05 0 1.5 
1.49999 -2.84317e-05 -2.85172e-05 0 1.49999 
1.5 1.44801e-05 1.43447e-05 0 1.5 
1.5 -5.65345e-06 -5.52597e-06 0 1.5 
1.50001 1.53458e-05 1.5482e-05 0 1.50001 
1.5 -6.02494e-06 -6.02525e-06 0 1.5 
1.5 2.04224e-06 2.02493e-06 0 1.5 
1.5 -6.63002e-07 -6.21269e-07 0 1.5 
1.5 2.58499e-07 1.36374e-07 0 1.5 
1.5 -8.2797e-07 -4.19419e-07 0 1.5 
1.5 1.99657e-06 1.83611e-06 0 1.5 
1.5 -4.8031e-06 -4.34358e-06 0 1.5 
1.5 2.15958e-06 1.05783e-06 0 1.5 
1.5 -3.91346e-06 -1.8132e-06 0 1.5 
1.5 6.95375e-06 6.3214e-06 0 1.5 
1.5 5.0291e-06 3.18113e-06 0 1.5 
1.5 1.28263e-06 3.40878e-07 0 1.5 
1.5 1.93529e-05 8.86407e-06 0 1.5 
1.49998 -5.72964e-05 -4.41001e-05 0 1.49998 
1.50022 0.000646571 0.000654323 0 1.50022 
1.49986 -0.000450545 -0.000398203 0 1.49986 
1.50005 0.00017999 0.000149583 0 1.50005 
1.49981 -0.000607325 -0.000545431 0 1.49981 
1.50005 0.000189585 0.000160915 0 1.50005 
1.49999 -4.16182e-05 -3.24389e-05 0 1.49999 
1.50004 0.000159185 0.000140539 0 1.50004 
1.5 -1.30264e-05 -7.59488e-06 0 1.5 
1.5 -9.51481e-06 -1.03286e-05 0 1.5 
1.50374 0.0115829 0.0106002 0 1.50374 
1.49786 -0.00695755 -0.00559817 0 1.49786 
1.5002 0.00080691 0.000370521 0 1.5002 
1.49782 -0.00672521 -0.00617276 0 1.49782 
1.49989 -0.0002222 -0.000409776 0 1.49989 
1.50039 0.0012177 0.00116641 0 1.50039 
1.49976 -0.000671133 -0.000710423 0 1.49976 
1.50049 0.00149469 0.00147029 0 1.50049 
1.4998 -0.000652896 -0.000614328 0 1.4998 
1.44807 -0.132006 -0.140837 0 1.44807 
1.4888 -0.0294016 -0.0303493 0 1.4888 
1.50878 0.0256256 0.0220938 0 1.50878 
1.49086 -0.0229189 -0.0260223 0 1.49086 
1.50914 0.023984 0.0256473 0 1.50914 
1.50461 0.0135729 0.013714 0 1.50461 
1.50958 0.0228502 0.029192 0 1.50958 
1.50411 0.0115694 0.0127293 0 1.50411 
1.49775 -0.00647167 -0.00684816 0 1.49775 
1.34923 -0.294327 -0.48196 0 1.34923 
1.36786 -0.290279 -0.39402 0 1.36786 
1.40321 -0.232329 -0.273646 0 1.40321 
1.38806 -0.21108 -0.360959 0 1.38806 
1.41735 -0.176142 -0.252603 0 1.41735 
1.45518 -0.104215 -0.130546 0 1.45518 
1.44008 -0.11302 -0.195268 0 1.44008 
1.46948 -0.0654673 -0.0944006 0 1.46948 
1.49689 -0.00845805 -0.00891728 0 1.49689 
1.32696 -0.219263 -0.628135 0 1.32696 
1.33081 -0.254759 -0.591068 0 1.33081 
1.33956 -0.275122 -0.542206 0 1.33956 
1.3436 -0.183826 -0.560496 0 1.3436 
1.35421 -0.203392 -0.509091 0 1.35421 
1.36885 -0.212492 -0.44448 0 1.36885 
1.37985 -0.128775 -0.431829 0 1.37985 
1.39704 -0.136726 -0.36458 0 1.39704 
1.41639 -0.134027 -0.286697 0 1.41639 
1.43055 -0.0672267 -0.252795 0 1.43055 
1.44694 -0.0652883 -0.190148 0 1.44694 
1.46516 -0.0541007 -0.119918 0 1.46516 
1.47991 -0.0181362 -0.0740716 0 1.47991 
1.4902 -0.0116933 -0.0346524 0 1.4902 
1.50071 0.000579505 0.00364009 0 1.50071 
1.5062 0.00499805 0.0246419 0 1.5062 
1.50796 0.00850247 0.0303183 0 1.50796 
1.50731 0.0108133 0.0262629 0 1.50731 
1.48585 -0.0269003 -0.0462288 0 1.48585 
1.50347 0.0062172 0.0117239 0 1.50347 
1.509 0.0202192 0.0289724 0 1.509 
1.50787 0.0140578 0.0276206 0 1.50787 
1.50682 0.0144684 0.0229432 0 1.50682 
1.50029 0.00155747 0.000712683 0 1.50029 
1.50299 0.00578338 0.0100703 0 1.50299 
1.49852 -0.00265432 -0.00520977 0 1.49852 
1.49852 -0.00371391 -0.00484557 0 1.49852 
1.50243 0.0069276 0.00765542 0 1.50243 
1.49767 -0.00621932 -0.00743882 0 1.49767 
1.49988 -0.000409 -0.000293019 0 1.49988 
1.49788 -0.00539326 -0.00694675 0 1.49788 
1.50017 0.000334288 0.000700006 0 1.50017 
1.50042 0.00125171 0.00131269 0 1.50042 
1.50048 0.00109575 0.00168907 0 1.50048 
1.50027 0.000790792 0.000807631 0 1.50027 
1.4998 -0.000589742 -0.00064788 0 1.4998 
1.50006 0.000173235 0.000196526 0 1.50006 
1.49984 -0.00045587 -0.000537501 0 1.49984 
1.50005 0.000196083 0.000188622 0 1.50005 
1.49995 -0.000142747 -0.000429939 0 1.49995 
1.50004 0.000121984 0.000259174 0 1.50004 
1.49999 -3.07792e-05 -4.406e-05 0 1.49999 
1.50046 0.000772175 0.00132225 0 1.50046 
1.50028 0.000651008 0.00213478 0 1.50028 
1.49988 -0.000261276 -0.000411374 0 1.49988 
1.50062 0.00144079 0.00203192 0 1.50062 
1.49953 -0.00124967 -0.00178962 0 1.49953 
1.49793 -0.00370059 -0.00681821 0 1.49793 
1.49876 -0.00143296 -0.00358078 0 1.49876 
1.50155 0.00236568 0.00570786 0 1.50155 
1.50414 0.00379021 0.0142651 0 1.50414 
1.49834 -0.00136933 -0.00710463 0 1.49834 
1.49881 -0.00148122 -0.00801019 0 1.49881 
1.49976 -0.000510622 -0.00430761 0 1.49976 
1.49916 -1.98825e-05 0.00505704 0 1.49916 
1.49856 -0.000642083 0.000150528 0 1.49856 
1.49827 -0.00112595 -0.00423775 0 1.49827 
1.50613 0.00437294 0.0209638 0 1.50613 
1.50732 0.00409491 0.02495 0 1.50732 
1.50724 0.00233336 0.0249215 0 1.50724 
1.50678 0.000846524 0.0236572 0 1.50678 
1.50605 -0.00236622 0.021051 0 1.50605 
1.50503 -0.0054344 0.0174311 0 1.50503 
1.49947 0.00101295 0.00398024 0 1.49947 
1.49978 0.000571178 0.0081455 0 1.49978 
1.49963 0.000110938 0.00790493 0 1.49963 
1.49854 0.000179055 -0.0062089 0 1.49854 
1.4989 0.000801811 -0.00244073 0 1.4989 
1.50416 -0.00478624 0.0145262 0 1.50416 
1.50374 -0.00144751 0.0130565 0 1.50374 
1.50695 0.00101188 0.0260352 0 1.50695 
1.50368 0.00336025 0.0134406 0 1.50368 
1.4739 0.0230438 -0.0971405 0 1.4739 
1.47723 0.00858593 -0.0830552 0 1.47723 
1.41466 0.0138145 -0.298076 0 1.41466 
1.41586 0.0329174 -0.30022 0 1.41586 
1.41807 0.0413129 -0.304775 0 1.41807 
1.41671 0.0356869 -0.319127 0 1.41671 
1.41026 0.011052 -0.341253 0 1.41026 
1.46902 0.0256082 -0.118947 0 1.46902 
1.46289 0.013065 -0.14298 0 1.46289 
1.45829 -0.00403269 -0.15805 0 1.45829 
1.49813 0.00241688 -0.00682334 0 1.49813 
1.4943 -0.00171685 -0.0205219 0 1.4943 
1.49441 -0.00367254 -0.0202626 0 1.49441 
1.40629 -0.0213043 -0.350345 0 1.40629 
1.4096 -0.0433927 -0.33537 0 1.4096 
1.41754 -0.0599737 -0.302479 0 1.41754 
1.45859 -0.0136827 -0.155629 0 1.45859 
1.46275 -0.0198698 -0.139045 0 1.46275 
1.47008 -0.022106 -0.111026 0 1.47008 
1.49651 -0.00318832 -0.0120729 0 1.49651 
1.49948 -0.00188551 -0.000425549 0 1.49948 
1.50327 0.00188091 0.0137194 0 1.50327 
1.34173 -0.0357604 -0.648798 0 1.34173 
1.3441 -0.0897142 -0.63649 0 1.3441 
1.33135 -0.167059 -0.644134 0 1.33135 
1.33589 -0.0127173 -0.63611 0 1.33589 
1.33378 -0.0897104 -0.629257 0 1.33378 
1.33667 -0.148295 -0.601872 0 1.33667 
1.3583 -0.0184497 -0.531717 0 1.3583 
1.35839 -0.0683523 -0.522229 0 1.35839 
1.36684 -0.10384 -0.485841 0 1.36684 
1.25004 -0.0329429 -0.824238 0 1.25004 
1.278 -0.0345669 -0.769814 0 1.278 
1.31315 -0.0287503 -0.70357 0 1.31315 
1.29451 0.0130201 -0.698549 0 1.29451 
1.31137 0.027153 -0.670393 0 1.31137 
1.32919 0.0268018 -0.64514 0 1.32919 
1.35509 0.036947 -0.514431 0 1.35509 
1.36178 0.0467524 -0.510575 0 1.36178 
1.36281 0.0308475 -0.520032 0 1.36281 
1.34683 0.0250544 -0.525961 0 1.34683 
1.34033 0.00999717 -0.535375 0 1.34033 
1.27115 -0.00156161 -0.740579 0 1.27115 
1.28132 0.00160929 -0.723127 0 1.28132 
1.23219 -0.0324326 -0.860609 0 1.23219 
1.22243 -0.0166359 -0.880787 0 1.22243 
1.20931 -0.0254817 -0.927789 0 1.20931 
1.21264 -0.0663326 -0.917218 0 1.21264 
1.22448 -0.08489 -0.901626 0 1.22448 
1.22468 -0.0236627 -0.901446 0 1.22468 
1.23838 -0.0250713 -0.876768 0 1.23838 
1.24437 -0.09544 -0.873454 0 1.24437 
1.25461 -0.192425 -0.862298 0 1.25461 
1.26141 -0.258904 -0.846431 0 1.26141 
1.27364 -0.265204 -0.817933 0 1.27364 
1.23551 -0.157318 -0.885533 0 1.23551 
1.25866 -0.212995 -0.841029 0 1.25866 
1.28468 -0.211262 -0.788654 0 1.28468 
1.23068 -0.0989315 -0.881939 0 1.23068 
1.26221 -0.125823 -0.82034 0 1.26221 
1.30143 -0.128513 -0.740598 0 1.30143 
1.3098 -0.262104 -0.753939 0 1.3098 
1.35597 -0.23394 -0.67191 0 1.35597 
1.38127 -0.210987 -0.615024 0 1.38127 
1.31453 -0.164114 -0.734834 0 1.31453 
1.35312 -0.134348 -0.664292 0 1.35312 
1.37058 -0.174346 -0.610148 0 1.37058 
1.33748 -0.0951279 -0.672674 0 1.33748 
1.35334 -0.0832199 -0.64332 0 1.35334 
1.34476 -0.158884 -0.641416 0 1.34476 
1.34967 -0.514645 -0.713725 0 1.34967 
1.38953 -0.50151 -0.640086 0 1.38953 
1.4212 -0.446573 -0.566331 0 1.4212 
1.32693 -0.43657 -0.743091 0 1.32693 
1.36255 -0.401092 -0.677971 0 1.36255 
1.40011 -0.358261 -0.603997 0 1.40011 
1.31913 -0.36545 -0.746728 0 1.31913 
1.35303 -0.316634 -0.68823 0 1.35303 
1.38284 -0.271426 -0.631185 0 1.38284 
1.27264 -0.249166 -0.900755 0 1.27264 
1.30444 -0.391344 -0.83498 0 1.30444 
1.32364 -0.478913 -0.775146 0 1.32364 
1.27624 -0.213615 -0.861862 0 1.27624 
1.28404 -0.301011 -0.841377 0 1.28404 
1.30308 -0.419059 -0.793091 0 1.30308 
1.26874 -0.205975 -0.857572 0 1.26874 
1.26653 -0.274081 -0.851544 0 1.26653 
1.28221 -0.342344 -0.811397 0 1.28221 
1.25711 -0.114141 -0.864108 0 1.25711 
1.24425 -0.0308631 -0.873512 0 1.24425 
1.24691 -0.0418185 -0.876953 0 1.24691 
1.26465 -0.141234 -0.868076 0 1.26465 
1.25687 -0.160246 -0.908842 0 1.25687 
1.24018 -0.0561443 -0.907368 0 1.24018 
1.26362 -0.0464597 -0.832419 0 1.26362 
1.27731 -0.136107 -0.865119 0 1.27731 
1.37493 -0.11797 -0.559701 0 1.37493 
1.34366 -0.0329733 -0.530346 0 1.34366 
1.42143 -0.0450663 -0.180842 0 1.42143 
1.43179 -0.0459674 -0.282785 0 1.43179 
1.61376 -0.764007 -0.0241249 0 1.61376 
1.749 -1.28161 0.357366 0 1.749 
1.71383 -0.98811 0.360643 0 1.71383 
1.41206 -0.26028 -0.582005 0 1.41206 
1.55263 -0.792362 -0.179987 0 1.55263 
1.62362 -0.961802 0.11196 0 1.62362 
1.28868 -0.264665 -0.901424 0 1.28868 
1.28084 -0.399996 -0.970819 0 1.28084 
1.31694 -0.615514 -0.87906 0 1.31694 
1.67822 -0.702153 0.248561 0 1.67822 
1.65133 -0.516789 0.0909391 0 1.65133 
1.59231 -0.498446 -0.0856582 0 1.59231 
1.58631 -0.811952 -0.0186908 0 1.58631 
1.53719 -0.672617 -0.228819 0 1.53719 
1.51634 -0.558206 -0.313233 0 1.51634 
1.3816 -0.703523 -0.68879 0 1.3816 
1.42775 -0.628252 -0.563212 0 1.42775 
1.45375 -0.522554 -0.493135 0 1.45375 
1.51649 -0.58329 -0.127537 0 1.51649 
1.45777 -0.641119 -0.109341 0 1.45777 
1.42173 -0.641786 -0.13204 0 1.42173 
1.39562 -0.63985 -0.128397 0 1.39562 
1.37707 -0.643352 -0.0970448 0 1.37707 
1.36107 -0.645566 -0.0675316 0 1.36107 
1.34753 -0.646136 -0.0578562 0 1.34753 
1.33678 -0.643314 -0.0656927 0 1.33678 
1.3409 -0.599665 -0.0643752 0 1.3409 
1.48431 -0.543411 -0.30299 0 1.48431 
1.43201 -0.62191 -0.267277 0 1.43201 
1.40639 -0.63765 -0.239738 0 1.40639 
1.39483 -0.617751 -0.206328 0 1.39483 
1.37861 -0.619158 -0.17176 0 1.37861 
1.3616 -0.626053 -0.146591 0 1.3616 
1.34261 -0.642573 -0.131626 0 1.34261 
1.33107 -0.643743 -0.127402 0 1.33107 
1.34383 -0.578904 -0.110157 0 1.34383 
1.45028 -0.501652 -0.432033 0 1.45028 
1.41851 -0.566797 -0.360517 0 1.41851 
1.39632 -0.59386 -0.314597 0 1.39632 
1.38737 -0.580333 -0.282427 0 1.38737 
1.37332 -0.586041 -0.250375 0 1.37332 
1.35632 -0.60287 -0.224358 0 1.35632 
1.33817 -0.627532 -0.202107 0 1.33817 
1.33057 -0.625986 -0.177525 0 1.33057 
1.35108 -0.543458 -0.142487 0 1.35108 
1.42845 -0.429357 -0.496439 0 1.42845 
1.40324 -0.501861 -0.438262 0 1.40324 
1.38171 -0.550015 -0.391398 0 1.38171 
1.37555 -0.547341 -0.351821 0 1.37555 
1.36586 -0.553859 -0.316555 0 1.36586 
1.35219 -0.57581 -0.283092 0 1.35219 
1.33772 -0.601888 -0.24993 0 1.33772 
1.33486 -0.593422 -0.216163 0 1.33486 
1.36094 -0.49519 -0.169372 0 1.36094 
1.40932 -0.367052 -0.541124 0 1.40932 
1.38705 -0.453126 -0.488125 0 1.38705 
1.37036 -0.508856 -0.442217 0 1.37036 
1.36744 -0.511022 -0.398868 0 1.36744 
1.36208 -0.517378 -0.359987 0 1.36208 
1.35065 -0.542677 -0.322933 0 1.35065 
1.33609 -0.574071 -0.292745 0 1.33609 
1.33915 -0.549741 -0.254718 0 1.33915 
1.37388 -0.430127 -0.191432 0 1.37388 
1.38869 -0.310356 -0.575418 0 1.38869 
1.36986 -0.410774 -0.528854 0 1.36986 
1.35997 -0.459009 -0.483546 0 1.35997 
1.35933 -0.466291 -0.439665 0 1.35933 
1.35606 -0.477141 -0.400514 0 1.35606 
1.34278 -0.514243 -0.370629 0 1.34278 
1.3314 -0.541628 -0.340161 0 1.3314 
1.34916 -0.483968 -0.280162 0 1.34916 
1.39589 -0.33969 -0.186046 0 1.39589 
1.37156 -0.280555 -0.587627 0 1.37156 
1.35341 -0.372921 -0.560492 0 1.35341 
1.34888 -0.411395 -0.519779 0 1.34888 
1.35088 -0.422048 -0.476494 0 1.35088 
1.34726 -0.443697 -0.440514 0 1.34726 
1.3341 -0.488438 -0.411212 0 1.3341 
1.33802 -0.484502 -0.357743 0 1.33802 
1.37448 -0.385743 -0.260531 0 1.37448 
1.42782 -0.229063 -0.143865 0 1.42782 
1.35764 -0.273407 -0.590387 0 1.35764 
1.34677 -0.340925 -0.565758 0 1.34677 
1.34615 -0.368393 -0.5279 0 1.34615 
1.34806 -0.382653 -0.490106 0 1.34806 
1.34112 -0.417094 -0.460349 0 1.34112 
1.33835 -0.442695 -0.415478 0 1.33835 
1.36338 -0.389429 -0.324433 0 1.36338 
1.41096 -0.264639 -0.202317 0 1.41096 
1.46226 -0.115401 -0.082712 0 1.46226 
1.33537 -0.249501 -0.625936 0 1.33537 
1.33547 -0.300368 -0.587671 0 1.33547 
1.33984 -0.325404 -0.545751 0 1.33984 
1.34174 -0.347319 -0.50764 0 1.34174 
1.34232 -0.375275 -0.460684 0 1.34232 
1.36083 -0.355072 -0.374219 0 1.36083 
1.40184 -0.26534 -0.251288 0 1.40184 
1.45098 -0.137345 -0.121028 0 1.45098 
1.49233 -0.0216082 -0.0194737 0 1.49233 
1.47845 -0.0705834 -0.0413621 0 1.47845 
1.50658 0.0222655 0.0125556 0 1.50658 
1.50457 0.0157733 0.0088456 0 1.50457 
1.49969 -0.000538986 -0.00133765 0 1.49969 
1.50776 0.0259933 0.0159892 0 1.50776 
1.49937 -0.00239518 -0.000622556 0 1.49937 
1.50875 0.0277601 0.019753 0 1.50875 
1.50173 0.00546167 0.00496669 0 1.50173 
1.49818 -0.00607921 -0.00441979 0 1.49818 
1.4981 -0.00676618 -0.00336568 0 1.4981 
1.50008 0.000414943 -3.32338e-05 0 1.50008 
1.5002 0.000669991 0.000454736 0 1.5002 
1.49905 -0.00315217 -0.00225381 0 1.49905 
1.50051 0.00177829 0.00108424 0 1.50051 
1.49986 -0.000521799 -0.000265734 0 1.49986 
1.5005 0.0017885 0.0010672 0 1.5005 
1.5 -7.55362e-05 7.96932e-05 0 1.5 
1.49994 -0.000171603 -0.000173063 0 1.49994 
1.50003 0.000107785 8.66208e-05 0 1.50003 
1.49999 -5.59239e-05 -2.29429e-05 0 1.49999 
1.5 9.46525e-06 4.8469e-06 0 1.5 
1.50002 8.59334e-05 2.54043e-05 0 1.50002 
1.49989 -0.000403883 -0.000225988 0 1.49989 
1.50003 0.000187852 5.66385e-05 0 1.50003 
1.50001 -4.06754e-05 6.39746e-06 0 1.50001 
1.4999 -0.000360533 -0.000166087 0 1.4999 
1.50025 0.000953779 0.000420779 0 1.50025 
1.49991 -0.000653077 -0.000148812 0 1.49991 
1.49987 -0.000624696 -0.000156494 0 1.49987 
1.50058 0.00213271 0.000727259 0 1.50058 
1.50807 0.0301475 0.0093388 0 1.50807 
1.49966 -0.00154634 2.23976e-05 0 1.49966 
1.49883 -0.00425427 -0.00157566 0 1.49883 
1.50514 0.018531 0.00824126 0 1.50514 
1.49801 -0.00731388 -0.00306996 0 1.49801 
1.50001 0.00010718 -4.63756e-05 0 1.50001 
1.50038 0.00120052 0.000864312 0 1.50038 
1.49863 -0.00481582 -0.00246448 0 1.49863 
1.50053 0.00192287 0.000930189 0 1.50053 
1.40886 -0.326743 -0.109651 0 1.40886 
1.46009 -0.142863 -0.0478023 0 1.46009 
1.49821 -0.00498674 -0.00269053 0 1.49821 
1.42637 -0.25298 -0.110829 0 1.42637 
1.47679 -0.0799485 -0.0350451 0 1.47679 
1.50623 0.0226418 0.00914964 0 1.50623 
1.45104 -0.16282 -0.0852345 0 1.45104 
1.49502 -0.0171377 -0.00841041 0 1.49502 
1.50868 0.0305036 0.0153448 0 1.50868 
1.37511 -0.465321 -0.0430725 0 1.37511 
1.42935 -0.265091 -0.0179654 0 1.42935 
1.48144 -0.0699322 -0.0019939 0 1.48144 
1.38387 -0.431078 -0.0732462 0 1.38387 
1.43731 -0.23578 -0.0326784 0 1.43731 
1.48494 -0.0564001 -0.00569605 0 1.48494 
1.39561 -0.384143 -0.0941142 0 1.39561 
1.44751 -0.194955 -0.0440587 0 1.44751 
1.49037 -0.0343992 -0.00791208 0 1.49037 
1.50776 0.0303801 0.00118541 0 1.50776 
1.50322 0.0123546 -0.000492143 0 1.50322 
1.49808 -0.0073583 0.000239356 0 1.49808 
1.50744 0.0295099 0.00248278 0 1.50744 
1.50294 0.0111943 0.00081633 0 1.50294 
1.49818 -0.00700201 -0.000303153 0 1.49818 
1.50798 0.0310884 0.00554184 0 1.50798 
1.50184 0.00671383 0.00167976 0 1.50184 
1.49822 -0.00672796 -0.00122588 0 1.49822 
1.50049 0.00168508 0.000226189 0 1.50049 
1.49995 0.000235751 1.13402e-05 0 1.49995 
1.50002 0.000683911 2.7102e-05 0 1.50002 
1.50032 0.00100454 -2.51628e-05 0 1.50032 
1.50038 0.0012693 -1.72955e-05 0 1.50038 
1.49999 0.000426025 -2.05784e-05 0 1.49999 
1.49994 3.73993e-05 3.88832e-06 0 1.49994 
1.50051 0.00178331 -8.25383e-05 0 1.50051 
1.50043 0.00152482 -0.000219432 0 1.50043 
1.49995 1.12055e-05 7.55173e-05 0 1.49995 
1.5 0.00035662 -2.35587e-07 0 1.5 
1.50026 0.000850048 4.71152e-05 0 1.50026 
1.50686 0.026806 -0.00235215 0 1.50686 
1.50219 0.0085185 0.000422665 0 1.50219 
1.49862 -0.00535778 -0.000168001 0 1.49862 
1.50794 0.030436 -0.00279656 0 1.50794 
1.50252 0.00972302 0.000477789 0 1.50252 
1.49827 -0.00654777 0.000212823 0 1.49827 
1.50824 0.0317679 -0.0011245 0 1.50824 
1.50306 0.0116489 -0.000261241 0 1.50306 
1.49798 -0.00761972 0.000306451 0 1.49798 
1.38144 -0.436649 0.073219 0 1.38144 
1.43733 -0.235634 0.0275076 0 1.43733 
1.48574 -0.0547942 0.00125404 0 1.48574 
1.37205 -0.473292 0.0410608 0 1.37205 
1.42841 -0.266516 0.0173611 0 1.42841 
1.48238 -0.0668601 0.000622641 0 1.48238 
1.37082 -0.481457 -0.00309767 0 1.37082 
1.42574 -0.277092 0.000873722 0 1.42574 
1.48039 -0.0735789 0.000332918 0 1.48039 
1.42885 -0.25267 0.117628 0 1.42885 
1.47116 -0.100416 0.0390446 0 1.47116 
1.50201 0.00833578 -0.0053804 0 1.50201 
1.41018 -0.328381 0.0953243 0 1.41018 
1.4572 -0.155833 0.0404505 0 1.4572 
1.49529 -0.0156583 0.00724427 0 1.49529 
1.39507 -0.386658 0.0820881 0 1.39507 
1.44831 -0.19556 0.0356755 0 1.44831 
1.4895 -0.0390575 0.00592486 0 1.4895 
1.50625 0.0226845 -0.00754885 0 1.50625 
1.49855 -0.0054647 0.00151653 0 1.49855 
1.49962 -0.00128907 0.000723985 0 1.49962 
1.50709 0.02696 -0.00665206 0 1.50709 
1.5005 0.00157149 -0.00117343 0 1.5005 
1.49875 -0.00462623 0.0014255 0 1.49875 
1.50636 0.0252675 -0.00282579 0 1.50636 
1.50196 0.0072917 -0.00119298 0 1.50196 
1.49857 -0.00549642 0.000492144 0 1.49857 
1.5003 0.00101717 3.68063e-05 0 1.5003 
1.49999 0.000394614 -5.16819e-05 0 1.49999 
1.49992 -0.000233198 6.22357e-05 0 1.49992 
1.50047 0.00170502 -0.000450443 0 1.50047 
1.50036 0.00134331 -0.000559727 0 1.50036 
1.4999 -0.000665412 0.000156374 0 1.4999 
1.49997 -0.000247661 2.62009e-05 0 1.49997 
1.50002 0.000101697 7.17256e-05 0 1.50002 
1.49988 -0.00042695 0.000172436 0 1.49988 
1.50003 0.000178091 -3.12155e-05 0 1.50003 
1.49757 -0.00860044 0.000285308 0 1.49757 
1.50007 0.000340565 0.00113621 0 1.50007 
1.50024 0.000798654 -0.000578849 0 1.50024 
1.50031 0.00113067 -0.000923958 0 1.50031 
1.49863 -0.00494003 0.00331802 0 1.49863 
1.50173 0.00618636 -0.00377035 0 1.50173 
1.50638 0.0223583 -0.0149793 0 1.50638 
1.49216 -0.0276451 0.0254351 0 1.49216 
1.44837 -0.174582 0.0990976 0 1.44837 
1.463 -0.123253 0.0391544 0 1.463 
1.50835 0.0273108 0.00694303 0 1.50835 
1.50666 0.0233178 -0.00845828 0 1.50666 
1.23317 -0.720648 0.0515951 0 1.23317 
1.30312 -0.566949 0.0632995 0 1.30312 
1.38492 -0.354768 0.0582311 0 1.38492 
1.38234 -0.378646 0.14759 0 1.38234 
1.31394 -0.567756 0.149705 0 1.31394 
1.26177 -0.698176 0.109699 0 1.26177 
1.23111 -0.762036 0.0402275 0 1.23111 
1.21367 -0.780026 -0.0271166 0 1.21367 
1.2036 -0.771495 -0.0619904 0 1.2036 
1.18889 -0.768985 -0.0516411 0 1.18889 