# vtk DataFile Version 2.0
 Generated by Peano3 output component $Revision: 1.2 $ Author: Tobias Weinzierl
 ASCII
 

DATASET UNSTRUCTURED_GRID
POINTS 2500 float

0.92  0.96  0
0.96  0.96  0
0.92  1  0
0.96  1  0
0.96  0.96  0
1  0.96  0
0.96  1  0
1  1  0
0.96  0.92  0
1  0.92  0
0.96  0.96  0
1  0.96  0
0.92  0.92  0
0.96  0.92  0
0.92  0.96  0
0.96  0.96  0
0.88  0.92  0
0.92  0.92  0
0.88  0.96  0
0.92  0.96  0
0.84  0.92  0
0.88  0.92  0
0.84  0.96  0
0.88  0.96  0
0.8  0.92  0
0.84  0.92  0
0.8  0.96  0
0.84  0.96  0
0.8  0.96  0
0.84  0.96  0
0.8  1  0
0.84  1  0
0.84  0.96  0
0.88  0.96  0
0.84  1  0
0.88  1  0
0.88  0.96  0
0.92  0.96  0
0.88  1  0
0.92  1  0
0.68  0.96  0
0.72  0.96  0
0.68  1  0
0.72  1  0
0.72  0.96  0
0.76  0.96  0
0.72  1  0
0.76  1  0
0.76  0.96  0
0.8  0.96  0
0.76  1  0
0.8  1  0
0.76  0.92  0
0.8  0.92  0
0.76  0.96  0
0.8  0.96  0
0.72  0.92  0
0.76  0.92  0
0.72  0.96  0
0.76  0.96  0
0.68  0.92  0
0.72  0.92  0
0.68  0.96  0
0.72  0.96  0
0.68  0.8  0
0.72  0.8  0
0.68  0.84  0
0.72  0.84  0
0.72  0.8  0
0.76  0.8  0
0.72  0.84  0
0.76  0.84  0
0.76  0.8  0
0.8  0.8  0
0.76  0.84  0
0.8  0.84  0
0.68  0.84  0
0.72  0.84  0
0.68  0.88  0
0.72  0.88  0
0.72  0.84  0
0.76  0.84  0
0.72  0.88  0
0.76  0.88  0
0.76  0.84  0
0.8  0.84  0
0.76  0.88  0
0.8  0.88  0
0.68  0.88  0
0.72  0.88  0
0.68  0.92  0
0.72  0.92  0
0.72  0.88  0
0.76  0.88  0
0.72  0.92  0
0.76  0.92  0
0.76  0.88  0
0.8  0.88  0
0.76  0.92  0
0.8  0.92  0
0.8  0.8  0
0.84  0.8  0
0.8  0.84  0
0.84  0.84  0
0.84  0.8  0
0.88  0.8  0
0.84  0.84  0
0.88  0.84  0
0.88  0.8  0
0.92  0.8  0
0.88  0.84  0
0.92  0.84  0
0.8  0.84  0
0.84  0.84  0
0.8  0.88  0
0.84  0.88  0
0.84  0.84  0
0.88  0.84  0
0.84  0.88  0
0.88  0.88  0
0.88  0.84  0
0.92  0.84  0
0.88  0.88  0
0.92  0.88  0
0.8  0.88  0
0.84  0.88  0
0.8  0.92  0
0.84  0.92  0
0.84  0.88  0
0.88  0.88  0
0.84  0.92  0
0.88  0.92  0
0.88  0.88  0
0.92  0.88  0
0.88  0.92  0
0.92  0.92  0
0.92  0.88  0
0.96  0.88  0
0.92  0.92  0
0.96  0.92  0
0.96  0.88  0
1  0.88  0
0.96  0.92  0
1  0.92  0
0.96  0.84  0
1  0.84  0
0.96  0.88  0
1  0.88  0
0.92  0.84  0
0.96  0.84  0
0.92  0.88  0
0.96  0.88  0
0.92  0.8  0
0.96  0.8  0
0.92  0.84  0
0.96  0.84  0
0.96  0.8  0
1  0.8  0
0.96  0.84  0
1  0.84  0
0.96  0.76  0
1  0.76  0
0.96  0.8  0
1  0.8  0
0.92  0.76  0
0.96  0.76  0
0.92  0.8  0
0.96  0.8  0
0.92  0.72  0
0.96  0.72  0
0.92  0.76  0
0.96  0.76  0
0.96  0.72  0
1  0.72  0
0.96  0.76  0
1  0.76  0
0.96  0.68  0
1  0.68  0
0.96  0.72  0
1  0.72  0
0.92  0.68  0
0.96  0.68  0
0.92  0.72  0
0.96  0.72  0
0.8  0.68  0
0.84  0.68  0
0.8  0.72  0
0.84  0.72  0
0.84  0.68  0
0.88  0.68  0
0.84  0.72  0
0.88  0.72  0
0.88  0.68  0
0.92  0.68  0
0.88  0.72  0
0.92  0.72  0
0.8  0.72  0
0.84  0.72  0
0.8  0.76  0
0.84  0.76  0
0.84  0.72  0
0.88  0.72  0
0.84  0.76  0
0.88  0.76  0
0.88  0.72  0
0.92  0.72  0
0.88  0.76  0
0.92  0.76  0
0.8  0.76  0
0.84  0.76  0
0.8  0.8  0
0.84  0.8  0
0.84  0.76  0
0.88  0.76  0
0.84  0.8  0
0.88  0.8  0
0.88  0.76  0
0.92  0.76  0
0.88  0.8  0
0.92  0.8  0
0.68  0.68  0
0.72  0.68  0
0.68  0.72  0
0.72  0.72  0
0.72  0.68  0
0.76  0.68  0
0.72  0.72  0
0.76  0.72  0
0.76  0.68  0
0.8  0.68  0
0.76  0.72  0
0.8  0.72  0
0.68  0.72  0
0.72  0.72  0
0.68  0.76  0
0.72  0.76  0
0.72  0.72  0
0.76  0.72  0
0.72  0.76  0
0.76  0.76  0
0.76  0.72  0
0.8  0.72  0
0.76  0.76  0
0.8  0.76  0
0.68  0.76  0
0.72  0.76  0
0.68  0.8  0
0.72  0.8  0
0.72  0.76  0
0.76  0.76  0
0.72  0.8  0
0.76  0.8  0
0.76  0.76  0
0.8  0.76  0
0.76  0.8  0
0.8  0.8  0
0.56  0.68  0
0.6  0.68  0
0.56  0.72  0
0.6  0.72  0
0.6  0.68  0
0.64  0.68  0
0.6  0.72  0
0.64  0.72  0
0.64  0.68  0
0.68  0.68  0
0.64  0.72  0
0.68  0.72  0
0.56  0.72  0
0.6  0.72  0
0.56  0.76  0
0.6  0.76  0
0.6  0.72  0
0.64  0.72  0
0.6  0.76  0
0.64  0.76  0
0.64  0.72  0
0.68  0.72  0
0.64  0.76  0
0.68  0.76  0
0.56  0.76  0
0.6  0.76  0
0.56  0.8  0
0.6  0.8  0
0.6  0.76  0
0.64  0.76  0
0.6  0.8  0
0.64  0.8  0
0.64  0.76  0
0.68  0.76  0
0.64  0.8  0
0.68  0.8  0
0.44  0.68  0
0.48  0.68  0
0.44  0.72  0
0.48  0.72  0
0.48  0.68  0
0.52  0.68  0
0.48  0.72  0
0.52  0.72  0
0.52  0.68  0
0.56  0.68  0
0.52  0.72  0
0.56  0.72  0
0.44  0.72  0
0.48  0.72  0
0.44  0.76  0
0.48  0.76  0
0.48  0.72  0
0.52  0.72  0
0.48  0.76  0
0.52  0.76  0
0.52  0.72  0
0.56  0.72  0
0.52  0.76  0
0.56  0.76  0
0.44  0.76  0
0.48  0.76  0
0.44  0.8  0
0.48  0.8  0
0.48  0.76  0
0.52  0.76  0
0.48  0.8  0
0.52  0.8  0
0.52  0.76  0
0.56  0.76  0
0.52  0.8  0
0.56  0.8  0
0.32  0.68  0
0.36  0.68  0
0.32  0.72  0
0.36  0.72  0
0.36  0.68  0
0.4  0.68  0
0.36  0.72  0
0.4  0.72  0
0.4  0.68  0
0.44  0.68  0
0.4  0.72  0
0.44  0.72  0
0.32  0.72  0
0.36  0.72  0
0.32  0.76  0
0.36  0.76  0
0.36  0.72  0
0.4  0.72  0
0.36  0.76  0
0.4  0.76  0
0.4  0.72  0
0.44  0.72  0
0.4  0.76  0
0.44  0.76  0
0.32  0.76  0
0.36  0.76  0
0.32  0.8  0
0.36  0.8  0
0.36  0.76  0
0.4  0.76  0
0.36  0.8  0
0.4  0.8  0
0.4  0.76  0
0.44  0.76  0
0.4  0.8  0
0.44  0.8  0
0.32  0.8  0
0.36  0.8  0
0.32  0.84  0
0.36  0.84  0
0.36  0.8  0
0.4  0.8  0
0.36  0.84  0
0.4  0.84  0
0.4  0.8  0
0.44  0.8  0
0.4  0.84  0
0.44  0.84  0
0.32  0.84  0
0.36  0.84  0
0.32  0.88  0
0.36  0.88  0
0.36  0.84  0
0.4  0.84  0
0.36  0.88  0
0.4  0.88  0
0.4  0.84  0
0.44  0.84  0
0.4  0.88  0
0.44  0.88  0
0.32  0.88  0
0.36  0.88  0
0.32  0.92  0
0.36  0.92  0
0.36  0.88  0
0.4  0.88  0
0.36  0.92  0
0.4  0.92  0
0.4  0.88  0
0.44  0.88  0
0.4  0.92  0
0.44  0.92  0
0.44  0.8  0
0.48  0.8  0
0.44  0.84  0
0.48  0.84  0
0.48  0.8  0
0.52  0.8  0
0.48  0.84  0
0.52  0.84  0
0.52  0.8  0
0.56  0.8  0
0.52  0.84  0
0.56  0.84  0
0.44  0.84  0
0.48  0.84  0
0.44  0.88  0
0.48  0.88  0
0.48  0.84  0
0.52  0.84  0
0.48  0.88  0
0.52  0.88  0
0.52  0.84  0
0.56  0.84  0
0.52  0.88  0
0.56  0.88  0
0.44  0.88  0
0.48  0.88  0
0.44  0.92  0
0.48  0.92  0
0.48  0.88  0
0.52  0.88  0
0.48  0.92  0
0.52  0.92  0
0.52  0.88  0
0.56  0.88  0
0.52  0.92  0
0.56  0.92  0
0.56  0.8  0
0.6  0.8  0
0.56  0.84  0
0.6  0.84  0
0.6  0.8  0
0.64  0.8  0
0.6  0.84  0
0.64  0.84  0
0.64  0.8  0
0.68  0.8  0
0.64  0.84  0
0.68  0.84  0
0.56  0.84  0
0.6  0.84  0
0.56  0.88  0
0.6  0.88  0
0.6  0.84  0
0.64  0.84  0
0.6  0.88  0
0.64  0.88  0
0.64  0.84  0
0.68  0.84  0
0.64  0.88  0
0.68  0.88  0
0.56  0.88  0
0.6  0.88  0
0.56  0.92  0
0.6  0.92  0
0.6  0.88  0
0.64  0.88  0
0.6  0.92  0
0.64  0.92  0
0.64  0.88  0
0.68  0.88  0
0.64  0.92  0
0.68  0.92  0
0.64  0.92  0
0.68  0.92  0
0.64  0.96  0
0.68  0.96  0
0.6  0.92  0
0.64  0.92  0
0.6  0.96  0
0.64  0.96  0
0.56  0.92  0
0.6  0.92  0
0.56  0.96  0
0.6  0.96  0
0.56  0.96  0
0.6  0.96  0
0.56  1  0
0.6  1  0
0.6  0.96  0
0.64  0.96  0
0.6  1  0
0.64  1  0
0.64  0.96  0
0.68  0.96  0
0.64  1  0
0.68  1  0
0.44  0.96  0
0.48  0.96  0
0.44  1  0
0.48  1  0
0.48  0.96  0
0.52  0.96  0
0.48  1  0
0.52  1  0
0.52  0.96  0
0.56  0.96  0
0.52  1  0
0.56  1  0
0.52  0.92  0
0.56  0.92  0
0.52  0.96  0
0.56  0.96  0
0.48  0.92  0
0.52  0.92  0
0.48  0.96  0
0.52  0.96  0
0.44  0.92  0
0.48  0.92  0
0.44  0.96  0
0.48  0.96  0
0.4  0.92  0
0.44  0.92  0
0.4  0.96  0
0.44  0.96  0
0.36  0.92  0
0.4  0.92  0
0.36  0.96  0
0.4  0.96  0
0.32  0.92  0
0.36  0.92  0
0.32  0.96  0
0.36  0.96  0
0.32  0.96  0
0.36  0.96  0
0.32  1  0
0.36  1  0
0.36  0.96  0
0.4  0.96  0
0.36  1  0
0.4  1  0
0.4  0.96  0
0.44  0.96  0
0.4  1  0
0.44  1  0
0.2  0.96  0
0.24  0.96  0
0.2  1  0
0.24  1  0
0.24  0.96  0
0.28  0.96  0
0.24  1  0
0.28  1  0
0.28  0.96  0
0.32  0.96  0
0.28  1  0
0.32  1  0
0.28  0.92  0
0.32  0.92  0
0.28  0.96  0
0.32  0.96  0
0.24  0.92  0
0.28  0.92  0
0.24  0.96  0
0.28  0.96  0
0.2  0.92  0
0.24  0.92  0
0.2  0.96  0
0.24  0.96  0
0.16  0.92  0
0.2  0.92  0
0.16  0.96  0
0.2  0.96  0
0.12  0.92  0
0.16  0.92  0
0.12  0.96  0
0.16  0.96  0
0.08  0.92  0
0.12  0.92  0
0.08  0.96  0
0.12  0.96  0
0.08  0.96  0
0.12  0.96  0
0.08  1  0
0.12  1  0
0.12  0.96  0
0.16  0.96  0
0.12  1  0
0.16  1  0
0.16  0.96  0
0.2  0.96  0
0.16  1  0
0.2  1  0
-3.46945e-17  0.96  0
0.04  0.96  0
-3.46945e-17  1  0
0.04  1  0
0.04  0.96  0
0.08  0.96  0
0.04  1  0
0.08  1  0
0.04  0.92  0
0.08  0.92  0
0.04  0.96  0
0.08  0.96  0
-3.46945e-17  0.92  0
0.04  0.92  0
-3.46945e-17  0.96  0
0.04  0.96  0
-3.46945e-17  0.88  0
0.04  0.88  0
-3.46945e-17  0.92  0
0.04  0.92  0
0.04  0.88  0
0.08  0.88  0
0.04  0.92  0
0.08  0.92  0
0.04  0.84  0
0.08  0.84  0
0.04  0.88  0
0.08  0.88  0
-3.46945e-17  0.84  0
0.04  0.84  0
-3.46945e-17  0.88  0
0.04  0.88  0
-3.46945e-17  0.8  0
0.04  0.8  0
-3.46945e-17  0.84  0
0.04  0.84  0
0.04  0.8  0
0.08  0.8  0
0.04  0.84  0
0.08  0.84  0
0.08  0.8  0
0.12  0.8  0
0.08  0.84  0
0.12  0.84  0
0.12  0.8  0
0.16  0.8  0
0.12  0.84  0
0.16  0.84  0
0.16  0.8  0
0.2  0.8  0
0.16  0.84  0
0.2  0.84  0
0.08  0.84  0
0.12  0.84  0
0.08  0.88  0
0.12  0.88  0
0.12  0.84  0
0.16  0.84  0
0.12  0.88  0
0.16  0.88  0
0.16  0.84  0
0.2  0.84  0
0.16  0.88  0
0.2  0.88  0
0.08  0.88  0
0.12  0.88  0
0.08  0.92  0
0.12  0.92  0
0.12  0.88  0
0.16  0.88  0
0.12  0.92  0
0.16  0.92  0
0.16  0.88  0
0.2  0.88  0
0.16  0.92  0
0.2  0.92  0
0.2  0.8  0
0.24  0.8  0
0.2  0.84  0
0.24  0.84  0
0.24  0.8  0
0.28  0.8  0
0.24  0.84  0
0.28  0.84  0
0.28  0.8  0
0.32  0.8  0
0.28  0.84  0
0.32  0.84  0
0.2  0.84  0
0.24  0.84  0
0.2  0.88  0
0.24  0.88  0
0.24  0.84  0
0.28  0.84  0
0.24  0.88  0
0.28  0.88  0
0.28  0.84  0
0.32  0.84  0
0.28  0.88  0
0.32  0.88  0
0.2  0.88  0
0.24  0.88  0
0.2  0.92  0
0.24  0.92  0
0.24  0.88  0
0.28  0.88  0
0.24  0.92  0
0.28  0.92  0
0.28  0.88  0
0.32  0.88  0
0.28  0.92  0
0.32  0.92  0
0.2  0.68  0
0.24  0.68  0
0.2  0.72  0
0.24  0.72  0
0.24  0.68  0
0.28  0.68  0
0.24  0.72  0
0.28  0.72  0
0.28  0.68  0
0.32  0.68  0
0.28  0.72  0
0.32  0.72  0
0.2  0.72  0
0.24  0.72  0
0.2  0.76  0
0.24  0.76  0
0.24  0.72  0
0.28  0.72  0
0.24  0.76  0
0.28  0.76  0
0.28  0.72  0
[...]
CELL_DATA 625

SCALARS Q float 5
LOOKUP_TABLE default
1.5 1.94947e-15 5.14898e-16 0 1.5 
1.5 -1.36246e-16 -2.13308e-16 0 1.5 
1.5 8.79272e-16 2.0271e-15 0 1.5 
1.5 1.51285e-15 1.87145e-15 0 1.5 
1.5 -5.80709e-15 2.15819e-15 0 1.5 
1.5 2.48794e-15 1.5995e-15 0 1.5 
1.5 -1.07756e-15 1.78533e-15 0 1.5 
1.5 -1.20345e-15 -2.99137e-17 0 1.5 
1.5 2.78637e-15 1.15182e-16 0 1.5 
1.5 -5.69375e-15 1.14506e-16 0 1.5 
1.5 3.56725e-16 -4.31805e-17 0 1.5 
1.5 -2.84228e-16 2.91841e-17 0 1.5 
1.5 2.31744e-16 9.18871e-17 0 1.5 
1.5 3.36932e-16 1.91854e-15 0 1.5 
1.5 -1.85969e-16 2.02102e-15 0 1.5 
1.5 -1.09122e-16 2.02127e-15 0 1.5 
1.5 -7.94483e-17 -1.12971e-15 0 1.5 
1.5 -6.21048e-17 -1.15023e-15 0 1.5 
1.5 -8.30463e-17 -1.14046e-15 0 1.5 
1.5 -3.78217e-17 2.52957e-15 0 1.5 
1.5 -1.72946e-16 2.44737e-15 0 1.5 
1.5 4.25921e-16 2.63238e-15 0 1.5 
1.5 -5.28855e-17 -6.27977e-15 0 1.5 
1.5 -2.39999e-16 -6.29114e-15 0 1.5 
1.5 6.43504e-16 -6.49665e-15 0 1.5 
1.5 -7.93445e-16 -9.15962e-16 0 1.5 
1.5 2.28233e-15 -1.39794e-15 0 1.5 
1.5 -6.32224e-15 -1.47057e-15 0 1.5 
1.5 -1.23095e-15 2.6256e-15 0 1.5 
1.5 1.95186e-15 2.20173e-15 0 1.5 
1.5 -5.85353e-15 2.69585e-15 0 1.5 
1.5 -1.35536e-15 -6.53021e-15 0 1.5 
1.5 2.64351e-15 -6.02521e-15 0 1.5 
1.5 -6.14617e-15 -6.24621e-15 0 1.5 
1.5 1.97208e-15 -5.8406e-15 0 1.5 
1.5 2.27126e-16 -5.83115e-15 0 1.5 
1.5 2.77363e-16 2.69883e-15 0 1.5 
1.5 1.55687e-15 2.43163e-15 0 1.5 
1.5 1.8211e-15 -9.83739e-16 0 1.5 
1.5 3.2992e-17 -1.04744e-15 0 1.5 
1.5 -1.36467e-16 6.34164e-17 0 1.5 
1.5 2.03464e-15 3.51355e-16 0 1.5 
1.5 2.11639e-15 -2.43202e-16 0 1.5 
1.5 -1.73269e-17 9.50935e-17 0 1.5 
1.5 -7.13365e-17 -1.20569e-16 0 1.5 
1.5 2.05552e-15 2.30132e-17 0 1.5 
1.5 -1.11395e-15 -6.07319e-17 0 1.5 
1.5 2.59325e-15 4.24284e-17 0 1.5 
1.5 -6.28557e-15 -7.03384e-17 0 1.5 
1.5 -1.05734e-15 -4.0001e-17 0 1.5 
1.5 2.46149e-15 -2.9533e-16 0 1.5 
1.5 -6.50741e-15 -1.00524e-16 0 1.5 
1.5 -9.85354e-16 -1.53216e-16 0 1.5 
1.5 2.4137e-15 2.06571e-16 0 1.5 
1.5 -6.49152e-15 5.55777e-16 0 1.5 
1.5 1.54449e-08 1.30633e-08 0 1.5 
1.5 -1.43305e-16 -1.42751e-16 0 1.5 
1.5 -8.12945e-17 -1.42751e-16 0 1.5 
1.5 -1.40967e-16 -1.42751e-16 0 1.5 
1.5 -1.40268e-16 -1.42751e-16 0 1.5 
1.5 -7.8035e-17 -1.42751e-16 0 1.5 
1.5 -1.51313e-16 -8.12958e-17 0 1.5 
1.5 -1.52832e-16 -8.12958e-17 0 1.5 
1.5 -2.67302e-17 -5.04962e-17 0 1.5 
1.5 4.69077e-06 4.80437e-06 0 1.5 
1.5 7.59058e-06 7.47144e-06 0 1.5 
1.5 7.11931e-07 6.52343e-07 0 1.5 
1.5 6.66383e-06 7.38632e-06 0 1.5 
1.5 6.81679e-07 7.12111e-07 0 1.5 
1.5 1.52902e-08 1.49119e-08 0 1.5 
1.5 5.698e-07 6.78871e-07 0 1.5 
1.5 1.38527e-08 1.55861e-08 0 1.5 
1.5 -1.51313e-16 -8.12958e-17 0 1.5 
1.49982 -0.000447898 -0.000528292 0 1.49982 
1.50007 0.000172527 0.000205372 0 1.50007 
1.49998 -5.71595e-05 -6.55825e-05 0 1.49998 
1.50004 8.57022e-05 0.000120155 0 1.50004 
1.49999 -2.9027e-05 -4.18325e-05 0 1.49999 
1.5 2.00227e-06 2.15112e-06 0 1.5 
1.5 -2.96567e-06 -1.09323e-05 0 1.5 
1.5 -1.08102e-06 -1.79013e-06 0 1.5 
1.5 4.74902e-06 5.9331e-06 0 1.5 
1.49745 -0.0048675 -0.00926564 0 1.49745 
1.49967 -0.000636777 -0.000842625 0 1.49967 
1.50048 0.00108404 0.0014941 0 1.50048 
1.50062 0.00130755 0.00226042 0 1.50062 
1.50005 4.11289e-06 0.000122804 0 1.50005 
1.4999 -0.000182171 -0.000315724 0 1.4999 
1.49985 -0.000330126 -0.000531029 0 1.49985 
1.50001 7.05483e-05 4.52259e-05 0 1.50001 
1.50001 4.49592e-06 3.12651e-05 0 1.50001 
1.50003 6.47077e-05 0.000105875 0 1.50003 
1.49999 -2.74729e-05 -3.18183e-05 0 1.49999 
1.5 9.92823e-06 9.36893e-06 0 1.5 
1.5 -5.14253e-06 -1.35561e-05 0 1.5 
1.5 6.93534e-06 1.0167e-05 0 1.5 
1.5 -1.25607e-06 -3.03523e-06 0 1.5 
1.5 3.55111e-07 9.79592e-07 0 1.5 
1.5 1.49236e-07 -4.94085e-07 0 1.5 
1.5 1.84783e-07 3.42337e-07 0 1.5 
1.5 -2.11477e-06 -3.78646e-06 0 1.5 
1.5 2.63828e-06 3.71255e-06 0 1.5 
1.5 4.11615e-07 5.59276e-07 0 1.5 
1.5 1.02296e-06 1.6169e-06 0 1.5 
1.5 2.5391e-07 3.89475e-07 0 1.5 
1.5 7.98504e-09 1.28548e-08 0 1.5 
1.5 1.2476e-07 2.1603e-07 0 1.5 
1.5 5.25504e-09 1.02291e-08 0 1.5 
1.5 -2.74823e-17 -6.09504e-15 0 1.5 
1.5 1.14325e-08 1.48734e-08 0 1.5 
1.5 -8.24771e-17 -1.10918e-15 0 1.5 
1.5 -8.19222e-17 -1.10918e-15 0 1.5 
1.5 -2.63781e-17 2.57054e-15 0 1.5 
1.5 -2.4862e-17 2.57054e-15 0 1.5 
1.5 -2.54142e-17 2.60133e-15 0 1.5 
1.5 -2.74823e-17 -6.09504e-15 0 1.5 
1.5 -3.82766e-17 -6.09504e-15 0 1.5 
1.5 -3.05983e-17 -6.22833e-15 0 1.5 
1.5 2.5758e-18 1.95912e-15 0 1.5 
1.5 5.74986e-17 1.89785e-15 0 1.5 
1.5 9.53134e-18 1.86707e-15 0 1.5 
1.5 6.16402e-17 -1.76538e-16 0 1.5 
1.5 3.31736e-17 -1.76538e-16 0 1.5 
1.5 8.03836e-17 -2.89176e-16 0 1.5 
1.5 6.16402e-17 -1.76538e-16 0 1.5 
1.5 6.16402e-17 -1.76538e-16 0 1.5 
1.5 6.16402e-17 -1.76538e-16 0 1.5 
1.5 9.53134e-18 1.86707e-15 0 1.5 
1.5 9.53134e-18 1.86707e-15 0 1.5 
1.5 2.87271e-09 6.63043e-09 0 1.5 
1.5 4.51669e-08 8.53079e-08 0 1.5 
1.5 -4.7552e-08 -1.11531e-07 0 1.5 
1.5 4.13393e-07 6.32559e-07 0 1.5 
1.5 -1.1936e-08 -4.79039e-08 0 1.5 
1.5 7.69702e-09 1.29048e-08 0 1.5 
1.5 1.34803e-09 3.18751e-09 0 1.5 
1.5 1.53106e-07 4.3699e-07 0 1.5 
1.5 1.66951e-07 2.40477e-07 0 1.5 
1.5 7.19174e-08 7.58354e-08 0 1.5 
1.5 5.06093e-08 1.15363e-07 0 1.5 
1.5 2.50571e-07 6.79976e-08 0 1.5 
1.5 4.06871e-07 8.18608e-07 0 1.5 
1.5 8.20091e-07 3.22359e-07 0 1.5 
1.5 7.14999e-07 -6.44814e-07 0 1.5 
1.5 1.01483e-06 1.73591e-07 0 1.5 
1.5 1.88945e-07 1.00326e-07 0 1.5 
1.5 2.67173e-07 2.67542e-07 0 1.5 
1.5 2.55849e-07 2.75696e-07 0 1.5 
1.5 1.02973e-07 -2.04993e-07 0 1.5 
1.5 8.70529e-08 -2.36353e-08 0 1.5 
1.5 6.78374e-07 5.88821e-09 0 1.5 
1.5 2.31608e-07 -1.24939e-06 0 1.5 
1.5 -1.87607e-06 -6.84486e-07 0 1.5 
1.5 2.59904e-06 -7.16819e-06 0 1.5 
1.5 -1.92966e-05 1.55283e-05 0 1.5 
1.5 1.03537e-05 -6.23785e-06 0 1.5 
1.5 -2.78738e-05 9.11806e-06 0 1.5 
1.49999 8.47095e-05 -4.24365e-05 0 1.49999 
1.49993 9.67655e-06 -0.000295277 0 1.49993 
1.49989 -4.08819e-05 -0.00042875 0 1.49989 
1.4999 1.35871e-05 -0.000375009 0 1.4999 
1.50002 5.06891e-06 7.05132e-05 0 1.50002 
1.50002 3.57719e-06 8.59631e-05 0 1.50002 
1.50002 8.04349e-07 6.44579e-05 0 1.50002 
1.5 -6.16112e-07 -1.24258e-05 0 1.5 
1.5 1.17496e-06 -9.14479e-06 0 1.5 
1.5 4.43782e-08 -5.59667e-06 0 1.5 
1.4999 2.0011e-07 -0.000381827 0 1.4999 
1.49995 -8.93398e-05 -0.000204677 0 1.49995 
1.50002 -1.93916e-05 8.64179e-05 0 1.50002 
1.50002 -4.74215e-06 7.97925e-05 0 1.50002 
1.50001 1.82381e-05 3.59873e-05 0 1.50001 
1.49999 -3.19407e-06 -2.26914e-05 0 1.49999 
1.5 2.95898e-06 -9.90985e-06 0 1.5 
1.5 -3.08089e-07 -1.98402e-06 0 1.5 
1.5 2.90647e-06 4.30015e-06 0 1.5 
1.50575 0.000978836 0.0227601 0 1.50575 
1.50323 0.00525969 0.0125232 0 1.50323 
1.49946 0.00280098 -0.00321365 0 1.49946 
1.49849 -0.000398008 -0.00602094 0 1.49849 
1.49905 -0.00148184 -0.00365423 0 1.49905 
1.50002 -0.00102916 0.000382033 0 1.50002 
1.50038 7.22553e-05 0.00151487 0 1.50038 
1.50024 0.000374498 0.00090061 0 1.50024 
1.49996 0.000221087 -0.000194793 0 1.49996 
1.50378 -0.00385296 0.0152971 0 1.50378 
1.5066 0.00223756 0.0252416 0 1.5066 
1.50675 -0.000823277 0.0254651 0 1.50675 
1.49906 0.00124862 -0.0038333 0 1.49906 
1.49822 -0.000603928 -0.00679554 0 1.49822 
1.49816 0.000282989 -0.00694172 0 1.49816 
1.50026 -0.000244014 0.00103318 0 1.50026 
1.50046 0.000167438 0.00172933 0 1.50046 
1.50044 -8.89751e-05 0.00168094 0 1.50044 
1.50004 -0.000288803 0.000134599 0 1.50004 
1.5 3.97339e-05 -3.94412e-06 0 1.5 
1.50001 -6.05448e-05 9.31719e-05 0 1.50001 
1.4998 0.000841556 -0.000657605 0 1.4998 
1.50093 -0.00241198 0.00306959 0 1.50093 
1.49967 0.00074637 -0.00118876 0 1.49967 
1.50263 -0.00905207 0.00837262 0 1.50263 
1.50051 0.000447182 0.00259436 0 1.50051 
1.45906 0.062422 -0.14951 0 1.45906 
1.49435 0.0567443 -0.0112817 0 1.49435 
1.38697 0.103708 -0.325968 0 1.38697 
1.38149 0.236462 -0.41977 0 1.38149 
1.34039 0.164094 -0.589206 0 1.34039 
1.31597 0.102168 -0.675137 0 1.31597 
1.29786 -0.00399371 -0.711259 0 1.29786 
1.43381 0.0624792 -0.250827 0 1.43381 
1.41124 0.0284014 -0.330854 0 1.41124 
1.39873 -0.00163689 -0.365715 0 1.39873 
1.49317 0.000729247 -0.0275578 0 1.49317 
1.48856 -0.00974928 -0.0421519 0 1.48856 
1.49011 0.00218665 -0.0367043 0 1.49011 
1.30181 -0.0648722 -0.709623 0 1.30181 
1.31023 -0.0992384 -0.681141 0 1.31023 
1.32603 -0.176235 -0.60695 0 1.32603 
1.4119 -0.0303471 -0.331383 0 1.4119 
1.42303 -0.0547336 -0.287704 0 1.42303 
1.43973 -0.071575 -0.212614 0 1.43973 
1.49051 0.00253035 -0.0368226 0 1.49051 
1.49836 -0.00908728 -0.00647025 0 1.49836 
1.5094 0.00226018 0.0377782 0 1.5094 
1.11049 -0.00874377 -0.37411 0 1.11049 
1.15947 -0.115624 -0.555075 0 1.15947 
1.26806 -0.4537 -0.777074 0 1.26806 
1.23912 -0.0602236 -0.867298 0 1.23912 
1.27679 -0.214823 -0.907602 0 1.27679 
1.2892 -0.402649 -0.823863 0 1.2892 
1.25263 -0.0810012 -0.893304 0 1.25263 
1.26772 -0.156569 -0.855643 0 1.26772 
1.28303 -0.282669 -0.788832 0 1.28303 
1.20679 0.329407 -0.635626 0 1.20679 
1.15607 0.131215 -0.469717 0 1.15607 
1.11479 0.0131581 -0.401712 0 1.11479 
1.30016 0.397544 -0.847495 0 1.30016 
1.26838 0.199427 -0.868174 0 1.26838 
1.2384 0.0512647 -0.836628 0 1.2384 
1.30158 0.293607 -0.776863 0 1.30158 
1.27614 0.173163 -0.862428 0 1.27614 
1.25757 0.0258075 -0.880606 0 1.25757 
1.28563 0.328033 -0.694449 0 1.28563 
1.24086 0.0935062 -0.658954 0 1.24086 
1.16238 0.109319 -0.75035 0 1.16238 
1.21111 0.28166 -0.775375 0 1.21111 
1.19058 0.290449 -0.68218 0 1.19058 
1.13813 0.0924987 -0.674212 0 1.13813 
1.11639 0.0868783 -0.451634 0 1.11639 
1.1061 0.18438 -0.359796 0 1.1061 
1.01224 0.00592177 -0.0428386 0 1.01224 
1.0368 0.0215105 -0.117885 0 1.0368 
0.998891 -0.00977645 0.000996837 0 0.998891 
1.00189 0.00589171 -0.0059549 0 1.00189 
0.998546 -0.00534167 0.0044392 0 0.998546 
1.00116 0.00167325 -0.00379074 0 1.00116 
1.0004 -0.000523924 -0.000929944 0 1.0004 
1.00534 0.0189267 -0.0108399 0 1.00534 
0.994881 -0.00926679 0.0143934 0 0.994881 
0.999794 0.00220618 0.00100422 0 0.999794 
1.0475 0.101521 -0.124018 0 1.0475 
1.00714 0.0307182 -0.00746978 0 1.00714 
0.989616 -0.0120952 0.0291786 0 0.989616 
1.00033 0.00103154 -0.00232244 0 1.00033 
1.0019 -0.00457585 0.000813543 0 1.0019 
0.995578 0.0176562 -0.0109644 0 0.995578 
0.997649 0.00179976 0.00602304 0 0.997649 
1.00505 -0.0176176 -0.0070135 0 1.00505 
0.969529 0.0730179 0.0566571 0 0.969529 
0.996948 -0.0012248 0.014604 0 0.996948 
0.978856 0.0432236 0.0554882 0 0.978856 
1.05877 -0.145335 -0.152331 0 1.05877 
1.0091 -0.0312047 0.0199822 0 1.0091 
1.20402 -0.714903 -0.17002 0 1.20402 
1.27736 -0.889126 -0.215013 0 1.27736 
1.26797 -0.852696 -0.0815297 0 1.26797 
1.3159 -0.624454 -0.0408331 0 1.3159 
1.45524 -0.15485 -0.0500534 0 1.45524 
1.51178 0.045815 -0.00665605 0 1.51178 
1.49786 -0.00895083 0.00446753 0 1.49786 
1.50046 0.00197213 -0.00125476 0 1.50046 
1.07846 -0.237035 -0.138738 0 1.07846 
1.2804 -0.879553 -0.361144 0 1.2804 
1.27303 -0.809465 -0.373456 0 1.27303 
1.273 -0.768862 -0.323971 0 1.273 
1.341 -0.54622 -0.153502 0 1.341 
1.4692 -0.105358 -0.00674562 0 1.4692 
1.51551 0.0589411 0.00837375 0 1.51551 
1.49594 -0.0155883 -0.0023887 0 1.49594 
1.50105 0.00399712 0.000537406 0 1.50105 
1.20775 -0.560274 -0.532583 0 1.20775 
1.28263 -0.788729 -0.487074 0 1.28263 
1.28638 -0.80912 -0.362354 0 1.28638 
1.31021 -0.666791 -0.286052 0 1.31021 
1.40333 -0.350019 -0.140005 0 1.40333 
1.49454 -0.0227321 -0.00166689 0 1.49454 
1.50584 0.0223917 0.0090947 0 1.50584 
1.4984 -0.00611464 -0.00296782 0 1.4984 
1.50037 0.00142817 0.000740207 0 1.50037 
1.28226 -0.58655 -0.72721 0 1.28226 
1.24793 -0.627359 -0.613993 0 1.24793 
1.25869 -0.679261 -0.5168 0 1.25869 
1.33365 -0.496459 -0.334502 0 1.33365 
1.45358 -0.144086 -0.105388 0 1.45358 
1.50735 0.0262307 0.0151946 0 1.50735 
1.49968 -0.00199884 -0.000263988 0 1.49968 
1.49993 4.06785e-05 -0.000147972 0 1.49993 
1.50001 -1.09592e-05 -2.01695e-05 0 1.50001 
1.2902 -0.504202 -0.711453 0 1.2902 
1.26749 -0.558977 -0.627401 0 1.26749 
1.29302 -0.501491 -0.473695 0 1.29302 
1.41846 -0.222679 -0.204438 0 1.41846 
1.50414 0.0202981 0.00740305 0 1.50414 
1.50292 0.00775057 0.00793625 0 1.50292 
1.49892 -0.00313725 -0.00272829 0 1.49892 
1.50027 0.000804874 0.000611771 0 1.50027 
1.49995 -0.000146175 -8.63122e-05 0 1.49995 
1.28546 -0.39005 -0.686679 0 1.28546 
1.32205 -0.403518 -0.509725 0 1.32205 
1.41588 -0.233802 -0.218528 0 1.41588 
1.50042 0.00457985 0.00819101 0 1.50042 
1.5073 0.0210232 0.0188545 0 1.5073 
1.4976 -0.0073026 -0.00630193 0 1.4976 
1.50066 0.0020314 0.00167817 0 1.50066 
1.49984 -0.00049701 -0.000376938 0 1.49984 
1.50003 8.7605e-05 5.49631e-05 0 1.50003 
1.36023 -0.224758 -0.454983 0 1.36023 
1.43397 -0.140084 -0.204287 0 1.43397 
1.49815 -0.00237968 -0.00102749 0 1.49815 
1.50708 0.0192652 0.0199882 0 1.50708 
1.49729 -0.00794833 -0.00794806 0 1.49729 
1.50081 0.00244344 0.0023432 0 1.50081 
1.49976 -0.000734647 -0.000658379 0 1.49976 
1.50006 0.000193767 0.000152779 0 1.50006 
1.49999 -3.11828e-05 -1.9295e-05 0 1.49999 
1.47851 -0.0411578 -0.0683445 0 1.47851 
1.50911 0.01999 0.032602 0 1.50911 
1.50512 0.0130129 0.0150145 0 1.50512 
1.49778 -0.00617366 -0.00665576 0 1.49778 
1.50077 0.00224258 0.00232258 0 1.50077 
1.49974 -0.000745879 -0.000743422 0 1.49974 
1.50008 0.000243752 0.000223816 0 1.50008 
1.49998 -6.00347e-05 -4.84702e-05 0 1.49998 
1.5 1.17323e-06 1.21943e-06 0 1.5 
1.51019 0.0184404 0.0364043 0 1.51019 
1.50041 0.00103395 0.000313223 0 1.50041 
1.49824 -0.00436495 -0.00538514 0 1.49824 
1.50063 0.00172983 0.00190707 0 1.50063 
1.49977 -0.000648598 -0.000700121 0 1.49977 
1.50008 0.000231765 0.000241836 0 1.50008 
1.49998 -7.04559e-05 -6.80074e-05 0 1.49998 
1.5 4.42454e-06 4.15777e-06 0 1.5 
1.5 7.08871e-06 6.20638e-06 0 1.5 
1.5 -2.32665e-06 -1.24344e-06 0 1.5 
1.5 3.11818e-06 2.19397e-06 0 1.5 
1.5 3.34215e-07 2.11423e-07 0 1.5 
1.5 5.3527e-06 4.18248e-06 0 1.5 
1.5 5.07968e-07 3.59532e-07 0 1.5 
1.5 1.16779e-08 6.88472e-09 0 1.5 
1.5 6.48233e-07 5.21455e-07 0 1.5 
1.5 1.41782e-08 1.03917e-08 0 1.5 
1.5 -8.12958e-17 -1.42751e-16 0 1.5 
1.5 8.8101e-09 4.31962e-09 0 1.5 
1.5 2.57054e-15 -3.9422e-17 0 1.5 
1.5 -6.09434e-15 2.2197e-17 0 1.5 
1.5 -1.10863e-15 -1.01843e-16 0 1.5 
1.5 2.57069e-15 -3.9422e-17 0 1.5 
1.5 -6.10276e-15 -8.53069e-18 0 1.5 
1.5 -1.10864e-15 -1.01843e-16 0 1.5 
1.5 2.57791e-15 -8.63395e-18 0 1.5 
1.5 -6.11801e-15 5.2965e-17 0 1.5 
1.5 1.87114e-15 1.30948e-17 0 1.5 
1.5 1.23612e-16 6.46232e-17 0 1.5 
1.5 1.32556e-16 2.91986e-18 0 1.5 
1.5 1.82469e-15 -4.83203e-17 0 1.5 
1.5 1.80604e-15 -1.75322e-17 0 1.5 
1.5 1.30786e-16 2.91986e-18 0 1.5 
1.5 1.31341e-16 2.91986e-18 0 1.5 
1.5 1.80549e-15 -1.75322e-17 0 1.5 
1.5 1.80549e-15 -1.75322e-17 0 1.5 
1.5 1.31341e-16 2.91986e-18 0 1.5 
1.5 1.31341e-16 2.91986e-18 0 1.5 
1.5 6.71272e-10 2.81045e-10 0 1.5 
1.5 -2.22051e-07 8.10917e-08 0 1.5 
1.5 -9.47558e-09 1.18035e-08 0 1.5 
1.5 1.14714e-08 6.71338e-09 0 1.5 
1.5 2.54891e-07 1.73033e-07 0 1.5 
1.5 6.13075e-08 3.34944e-08 0 1.5 
1.5 2.36412e-09 9.97841e-10 0 1.5 
1.5 1.73725e-07 9.94069e-08 0 1.5 
1.5 5.22627e-09 2.20826e-09 0 1.5 
1.5 -6.09504e-15 2.2197e-17 0 1.5 
1.5 1.99025e-05 2.69397e-05 0 1.5 
1.5 -1.30389e-05 -1.03889e-05 0 1.5 
1.5 4.75107e-06 3.48355e-06 0 1.5 
1.5 5.7276e-06 -2.84928e-06 0 1.5 
1.5 7.66144e-06 6.70934e-06 0 1.5 
1.5 -1.60012e-06 -5.18185e-07 0 1.5 
1.5 -2.15692e-06 2.05669e-06 0 1.5 
1.5 -3.24184e-06 -1.51699e-06 0 1.5 
1.5 1.2489e-06 8.0812e-07 0 1.5 
1.49989 -0.000461864 0.00023136 0 1.49989 
1.50002 8.93926e-05 -1.95855e-05 0 1.50002 
1.5 -1.0484e-05 -2.24217e-06 0 1.5 
1.49974 -0.000988187 -9.53783e-05 0 1.49974 
1.50005 0.000201478 1.34153e-05 0 1.50005 
1.49999 -2.56414e-05 -5.91384e-08 0 1.49999 
1.49993 -0.000298451 -0.000138975 0 1.49993 
1.50001 5.02688e-05 1.54975e-05 0 1.50001 
1.5 -6.93759e-06 4.19516e-07 0 1.5 
1.5 4.91861e-07 1.65362e-06 0 1.5 
1.5 -3.5781e-08 -1.0804e-07 0 1.5 
1.5 5.78787e-08 6.16521e-08 0 1.5 
1.5 -5.55763e-07 -1.89716e-07 0 1.5 
1.5 9.42945e-07 2.9767e-07 0 1.5 
1.5 -2.26238e-08 3.00029e-08 0 1.5 
1.5 7.8277e-07 1.93815e-07 0 1.5 
1.5 2.85101e-07 1.86949e-07 0 1.5 
1.5 -2.65668e-08 4.27673e-10 0 1.5 
1.5 -5.61628e-10 -1.69294e-10 0 1.5 
1.5 2.91414e-10 9.1141e-11 0 1.5 
1.5 5.92163e-10 2.91986e-18 0 1.5 
1.5 -6.91739e-10 6.87413e-10 0 1.5 
1.5 1.63625e-08 8.46258e-09 0 1.5 
1.5 1.00515e-09 1.78447e-10 0 1.5 
1.5 1.62762e-09 9.6672e-10 0 1.5 
1.5 -1.152e-08 6.48841e-09 0 1.5 
1.5 -2.89794e-08 1.22522e-08 0 1.5 
1.5 -2.46711e-09 1.26276e-09 0 1.5 
1.5 5.92163e-10 1.15771e-16 0 1.5 
1.5 -4.7906e-09 3.85237e-09 0 1.5 
1.5 2.7339e-06 -1.25726e-06 0 1.5 
1.5 1.93982e-07 2.11392e-07 0 1.5 
1.5 -1.51182e-07 8.86516e-08 0 1.5 
1.5 -5.78564e-06 1.811e-06 0 1.5 
1.5 5.61603e-07 4.65796e-07 0 1.5 
1.5 9.15937e-08 -3.06909e-08 0 1.5 
1.5 -6.04128e-06 -1.01618e-06 0 1.5 
1.5 4.26722e-07 -1.0669e-08 0 1.5 
1.5 6.41789e-08 8.94557e-08 0 1.5 
1.49983 -0.000667475 8.26227e-05 0 1.49983 
1.50004 0.000156156 -4.10457e-05 0 1.50004 
1.49999 -2.77546e-05 1.14109e-05 0 1.49999 
1.50002 8.65427e-05 -0.000514542 0 1.50002 
1.49998 -6.55102e-05 0.000123401 0 1.49998 
1.50001 2.63349e-05 -2.06217e-05 0 1.50001 
1.5001 0.000406199 0.000318802 0 1.5001 
1.49996 -0.000144724 -8.84674e-05 0 1.49996 
1.50001 3.88021e-05 1.76172e-05 0 1.50001 
1.50001 4.89037e-05 -4.04514e-05 0 1.50001 
1.5 -1.54015e-05 9.82038e-06 0 1.5 
1.5 1.85366e-06 -1.56936e-07 0 1.5 
1.49999 -4.81228e-05 5.87809e-05 0 1.49999 
1.50001 2.3889e-05 -1.72902e-05 0 1.50001 
1.5 -5.80475e-06 3.00736e-06 0 1.5 
1.49989 -0.000412195 5.70947e-05 0 1.49989 
1.50002 6.02344e-05 1.30983e-05 0 1.50002 
1.5 -9.93441e-07 -6.74782e-06 0 1.5 
1.5 -3.22119e-07 2.74137e-07 0 1.5 
1.5 -1.48543e-07 8.35857e-08 0 1.5 
1.5 -8.10565e-09 3.6487e-09 0 1.5 
1.5 -2.64572e-07 6.99603e-07 0 1.5 
1.5 -1.14812e-08 3.19566e-08 0 1.5 
1.5 -3.07626e-08 1.51166e-08 0 1.5 
1.5 -1.46511e-06 1.53424e-06 0 1.5 
1.5 -6.94513e-08 2.23774e-07 0 1.5 
1.5 -3.8448e-08 1.73935e-08 0 1.5 
1.5 -6.49668e-10 1.99863e-09 0 1.5 
1.5 2.91414e-10 9.11422e-11 0 1.5 
1.5 -3.51718e-17 -2.36663e-15 0 1.5 
1.5 -2.41373e-09 1.24501e-09 0 1.5 
1.5 2.22204e-15 6.13572e-15 0 1.5 
1.5 -3.45585e-16 6.05271e-15 0 1.5 
1.5 5.5854e-16 -2.09237e-15 0 1.5 
1.5 1.34501e-15 -1.71518e-15 0 1.5 
1.5 1.87826e-15 -7.29732e-16 0 1.5 
1.5 1.25645e-16 -2.03501e-18 0 1.5 
1.5 -3.10367e-08 1.73964e-08 0 1.5 
1.5 2.95114e-15 9.26262e-17 0 1.5 
1.5 -6.15448e-15 -2.35979e-16 0 1.5 
1.5 -6.27182e-15 -2.19601e-15 0 1.5 
1.5 -1.68098e-08 8.09352e-09 0 1.5 
1.5 -3.96439e-07 2.39893e-07 0 1.5 
1.5 -1.40382e-06 1.11374e-06 0 1.5 
1.5 7.36731e-06 -3.59355e-06 0 1.5 
1.49999 -2.49085e-05 1.48419e-05 0 1.49999 
1.5 1.04406e-05 -1.66884e-05 0 1.5 
1.5 -4.94598e-06 1.92385e-06 0 1.5 
1.5 -8.69478e-07 5.11273e-07 0 1.5 
1.5001 0.000195283 -0.000494525 0 1.5001 
1.49998 -4.19462e-05 9.81013e-06 0 1.49998 
1.5 1.66017e-06 4.09409e-05 0 1.5 
1.5 2.4257e-05 -4.59276e-05 0 1.5 
1.50005 6.7033e-05 3.97339e-05 0 1.50005 
1.49986 -7.88928e-05 5.66767e-05 0 1.49986 
1.49959 -0.00267417 0.00138896 0 1.49959 
1.50865 0.0299728 -0.0224466 0 1.50865 
1.46849 -0.0801983 0.0873106 0 1.46849 
1.51184 0.0349752 -0.0367721 0 1.51184 
1.49938 -0.00326471 -0.00258311 0 1.49938 
1.49977 -0.000289076 0.00215044 0 1.49977 
1.3315 -0.261306 0.289704 0 1.3315 
1.40403 -0.218803 0.222865 0 1.40403 
1.47881 -0.0667938 0.0863671 0 1.47881 
1.38464 -0.279043 0.297856 0 1.38464 
1.33482 -0.352725 0.496368 0 1.33482 
1.30579 -0.384354 0.657152 0 1.30579 
1.26902 -0.489521 0.725524 0 1.26902 
1.27936 -0.547128 0.588448 0 1.27936 
1.32855 -0.467586 0.410264 0 1.32855 
1.26623 -0.606371 0.678445 0 1.26623 
1.26866 -0.657031 0.590275 0 1.26866 
1.29247 -0.662024 0.444025 0 1.29247 
1.19462 -0.520903 0.44903 0 1.19462 
1.28464 -0.797632 0.506208 0 1.28464 
1.27265 -0.757602 0.440246 0 1.27265 
1.40036 -0.28712 0.22296 0 1.40036 
1.48329 -0.0447526 0.0539922 0 1.48329 
1.50388 0.0136022 -0.0122763 0 1.50388 
1.36155 -0.493086 0.241211 0 1.36155 
1.4482 -0.194525 0.0765697 0 1.4482 
1.5023 0.00662858 -0.00320579 0 1.5023 