# vtk DataFile Version 2.0
 Generated by Peano3 output component $Revision: 1.2 $ Author: Tobias Weinzierl
 ASCII
 

DATASET UNSTRUCTURED_GRID
POINTS 2500 float

0.92  0.96  0
0.96  0.96  0
0.92  1  0
0.96  1  0
0.96  0.96  0
1  0.96  0
0.96  1  0
1  1  0
0.96  0.92  0
1  0.92  0
0.96  0.96  0
1  0.96  0
0.92  0.92  0
0.96  0.92  0
0.92  0.96  0
0.96  0.96  0
0.88  0.92  0
0.92  0.92  0
0.88  0.96  0
0.92  0.96  0
0.84  0.92  0
0.88  0.92  0
0.84  0.96  0
0.88  0.96  0
0.8  0.92  0
0.84  0.92  0
0.8  0.96  0
0.84  0.96  0
0.8  0.96  0
0.84  0.96  0
0.8  1  0
0.84  1  0
0.84  0.96  0
0.88  0.96  0
0.84  1  0
0.88  1  0
0.88  0.96  0
0.92  0.96  0
0.88  1  0
0.92  1  0
0.68  0.96  0
0.72  0.96  0
0.68  1  0
0.72  1  0
0.72  0.96  0
0.76  0.96  0
0.72  1  0
0.76  1  0
0.76  0.96  0
0.8  0.96  0
0.76  1  0
0.8  1  0
0.76  0.92  0
0.8  0.92  0
0.76  0.96  0
0.8  0.96  0
0.72  0.92  0
0.76  0.92  0
0.72  0.96  0
0.76  0.96  0
0.68  0.92  0
0.72  0.92  0
0.68  0.96  0
0.72  0.96  0
0.68  0.8  0
0.72  0.8  0
0.68  0.84  0
0.72  0.84  0
0.72  0.8  0
0.76  0.8  0
0.72  0.84  0
0.76  0.84  0
0.76  0.8  0
0.8  0.8  0
0.76  0.84  0
0.8  0.84  0
0.68  0.84  0
0.72  0.84  0
0.68  0.88  0
0.72  0.88  0
0.72  0.84  0
0.76  0.84  0
0.72  0.88  0
0.76  0.88  0
0.76  0.84  0
0.8  0.84  0
0.76  0.88  0
0.8  0.88  0
0.68  0.88  0
0.72  0.88  0
0.68  0.92  0
0.72  0.92  0
0.72  0.88  0
0.76  0.88  0
0.72  0.92  0
0.76  0.92  0
0.76  0.88  0
0.8  0.88  0
0.76  0.92  0
0.8  0.92  0
0.8  0.8  0
0.84  0.8  0
0.8  0.84  0
0.84  0.84  0
0.84  0.8  0
0.88  0.8  0
0.84  0.84  0
0.88  0.84  0
0.88  0.8  0
0.92  0.8  0
0.88  0.84  0
0.92  0.84  0
0.8  0.84  0
0.84  0.84  0
0.8  0.88  0
0.84  0.88  0
0.84  0.84  0
0.88  0.84  0
0.84  0.88  0
0.88  0.88  0
0.88  0.84  0
0.92  0.84  0
0.88  0.88  0
0.92  0.88  0
0.8  0.88  0
0.84  0.88  0
0.8  0.92  0
0.84  0.92  0
0.84  0.88  0
0.88  0.88  0
0.84  0.92  0
0.88  0.92  0
0.88  0.88  0
0.92  0.88  0
0.88  0.92  0
0.92  0.92  0
0.92  0.88  0
0.96  0.88  0
0.92  0.92  0
0.96  0.92  0
0.96  0.88  0
1  0.88  0
0.96  0.92  0
1  0.92  0
0.96  0.84  0
1  0.84  0
0.96  0.88  0
1  0.88  0
0.92  0.84  0
0.96  0.84  0
0.92  0.88  0
0.96  0.88  0
0.92  0.8  0
0.96  0.8  0
0.92  0.84  0
0.96  0.84  0
0.96  0.8  0
1  0.8  0
0.96  0.84  0
1  0.84  0
0.96  0.76  0
1  0.76  0
0.96  0.8  0
1  0.8  0
0.92  0.76  0
0.96  0.76  0
0.92  0.8  0
0.96  0.8  0
0.92  0.72  0
0.96  0.72  0
0.92  0.76  0
0.96  0.76  0
0.96  0.72  0
1  0.72  0
0.96  0.76  0
1  0.76  0
0.96  0.68  0
1  0.68  0
0.96  0.72  0
1  0.72  0
0.92  0.68  0
0.96  0.68  0
0.92  0.72  0
0.96  0.72  0
0.8  0.68  0
0.84  0.68  0
0.8  0.72  0
0.84  0.72  0
0.84  0.68  0
0.88  0.68  0
0.84  0.72  0
0.88  0.72  0
0.88  0.68  0
0.92  0.68  0
0.88  0.72  0
0.92  0.72  0
0.8  0.72  0
0.84  0.72  0
0.8  0.76  0
0.84  0.76  0
0.84  0.72  0
0.88  0.72  0
0.84  0.76  0
0.88  0.76  0
0.88  0.72  0
0.92  0.72  0
0.88  0.76  0
0.92  0.76  0
0.8  0.76  0
0.84  0.76  0
0.8  0.8  0
0.84  0.8  0
0.84  0.76  0
0.88  0.76  0
0.84  0.8  0
0.88  0.8  0
0.88  0.76  0
0.92  0.76  0
0.88  0.8  0
0.92  0.8  0
0.68  0.68  0
0.72  0.68  0
0.68  0.72  0
0.72  0.72  0
0.72  0.68  0
0.76  0.68  0
0.72  0.72  0
0.76  0.72  0
0.76  0.68  0
0.8  0.68  0
0.76  0.72  0
0.8  0.72  0
0.68  0.72  0
0.72  0.72  0
0.68  0.76  0
0.72  0.76  0
0.72  0.72  0
0.76  0.72  0
0.72  0.76  0
0.76  0.76  0
0.76  0.72  0
0.8  0.72  0
0.76  0.76  0
0.8  0.76  0
0.68  0.76  0
0.72  0.76  0
0.68  0.8  0
0.72  0.8  0
0.72  0.76  0
0.76  0.76  0
0.72  0.8  0
0.76  0.8  0
0.76  0.76  0
0.8  0.76  0
0.76  0.8  0
0.8  0.8  0
0.56  0.68  0
0.6  0.68  0
0.56  0.72  0
0.6  0.72  0
0.6  0.68  0
0.64  0.68  0
0.6  0.72  0
0.64  0.72  0
0.64  0.68  0
0.68  0.68  0
0.64  0.72  0
0.68  0.72  0
0.56  0.72  0
0.6  0.72  0
0.56  0.76  0
0.6  0.76  0
0.6  0.72  0
0.64  0.72  0
0.6  0.76  0
0.64  0.76  0
0.64  0.72  0
0.68  0.72  0
0.64  0.76  0
0.68  0.76  0
0.56  0.76  0
0.6  0.76  0
0.56  0.8  0
0.6  0.8  0
0.6  0.76  0
0.64  0.76  0
0.6  0.8  0
0.64  0.8  0
0.64  0.76  0
0.68  0.76  0
0.64  0.8  0
0.68  0.8  0
0.44  0.68  0
0.48  0.68  0
0.44  0.72  0
0.48  0.72  0
0.48  0.68  0
0.52  0.68  0
0.48  0.72  0
0.52  0.72  0
0.52  0.68  0
0.56  0.68  0
0.52  0.72  0
0.56  0.72  0
0.44  0.72  0
0.48  0.72  0
0.44  0.76  0
0.48  0.76  0
0.48  0.72  0
0.52  0.72  0
0.48  0.76  0
0.52  0.76  0
0.52  0.72  0
0.56  0.72  0
0.52  0.76  0
0.56  0.76  0
0.44  0.76  0
0.48  0.76  0
0.44  0.8  0
0.48  0.8  0
0.48  0.76  0
0.52  0.76  0
0.48  0.8  0
0.52  0.8  0
0.52  0.76  0
0.56  0.76  0
0.52  0.8  0
0.56  0.8  0
0.32  0.68  0
0.36  0.68  0
0.32  0.72  0
0.36  0.72  0
0.36  0.68  0
0.4  0.68  0
0.36  0.72  0
0.4  0.72  0
0.4  0.68  0
0.44  0.68  0
0.4  0.72  0
0.44  0.72  0
0.32  0.72  0
0.36  0.72  0
0.32  0.76  0
0.36  0.76  0
0.36  0.72  0
0.4  0.72  0
0.36  0.76  0
0.4  0.76  0
0.4  0.72  0
0.44  0.72  0
0.4  0.76  0
0.44  0.76  0
0.32  0.76  0
0.36  0.76  0
0.32  0.8  0
0.36  0.8  0
0.36  0.76  0
0.4  0.76  0
0.36  0.8  0
0.4  0.8  0
0.4  0.76  0
0.44  0.76  0
0.4  0.8  0
0.44  0.8  0
0.32  0.8  0
0.36  0.8  0
0.32  0.84  0
0.36  0.84  0
0.36  0.8  0
0.4  0.8  0
0.36  0.84  0
0.4  0.84  0
0.4  0.8  0
0.44  0.8  0
0.4  0.84  0
0.44  0.84  0
0.32  0.84  0
0.36  0.84  0
0.32  0.88  0
0.36  0.88  0
0.36  0.84  0
0.4  0.84  0
0.36  0.88  0
0.4  0.88  0
0.4  0.84  0
0.44  0.84  0
0.4  0.88  0
0.44  0.88  0
0.32  0.88  0
0.36  0.88  0
0.32  0.92  0
0.36  0.92  0
0.36  0.88  0
0.4  0.88  0
0.36  0.92  0
0.4  0.92  0
0.4  0.88  0
0.44  0.88  0
0.4  0.92  0
0.44  0.92  0
0.44  0.8  0
0.48  0.8  0
0.44  0.84  0
0.48  0.84  0
0.48  0.8  0
0.52  0.8  0
0.48  0.84  0
0.52  0.84  0
0.52  0.8  0
0.56  0.8  0
0.52  0.84  0
0.56  0.84  0
0.44  0.84  0
0.48  0.84  0
0.44  0.88  0
0.48  0.88  0
0.48  0.84  0
0.52  0.84  0
0.48  0.88  0
0.52  0.88  0
0.52  0.84  0
0.56  0.84  0
0.52  0.88  0
0.56  0.88  0
0.44  0.88  0
0.48  0.88  0
0.44  0.92  0
0.48  0.92  0
0.48  0.88  0
0.52  0.88  0
0.48  0.92  0
0.52  0.92  0
0.52  0.88  0
0.56  0.88  0
0.52  0.92  0
0.56  0.92  0
0.56  0.8  0
0.6  0.8  0
0.56  0.84  0
0.6  0.84  0
0.6  0.8  0
0.64  0.8  0
0.6  0.84  0
0.64  0.84  0
0.64  0.8  0
0.68  0.8  0
0.64  0.84  0
0.68  0.84  0
0.56  0.84  0
0.6  0.84  0
0.56  0.88  0
0.6  0.88  0
0.6  0.84  0
0.64  0.84  0
0.6  0.88  0
0.64  0.88  0
0.64  0.84  0
0.68  0.84  0
0.64  0.88  0
0.68  0.88  0
0.56  0.88  0
0.6  0.88  0
0.56  0.92  0
0.6  0.92  0
0.6  0.88  0
0.64  0.88  0
0.6  0.92  0
0.64  0.92  0
0.64  0.88  0
0.68  0.88  0
0.64  0.92  0
0.68  0.92  0
0.64  0.92  0
0.68  0.92  0
0.64  0.96  0
0.68  0.96  0
0.6  0.92  0
0.64  0.92  0
0.6  0.96  0
0.64  0.96  0
0.56  0.92  0
0.6  0.92  0
0.56  0.96  0
0.6  0.96  0
0.56  0.96  0
0.6  0.96  0
0.56  1  0
0.6  1  0
0.6  0.96  0
0.64  0.96  0
0.6  1  0
0.64  1  0
0.64  0.96  0
0.68  0.96  0
0.64  1  0
0.68  1  0
0.44  0.96  0
0.48  0.96  0
0.44  1  0
0.48  1  0
0.48  0.96  0
0.52  0.96  0
0.48  1  0
0.52  1  0
0.52  0.96  0
0.56  0.96  0
0.52  1  0
0.56  1  0
0.52  0.92  0
0.56  0.92  0
0.52  0.96  0
0.56  0.96  0
0.48  0.92  0
0.52  0.92  0
0.48  0.96  0
0.52  0.96  0
0.44  0.92  0
0.48  0.92  0
0.44  0.96  0
0.48  0.96  0
0.4  0.92  0
0.44  0.92  0
0.4  0.96  0
0.44  0.96  0
0.36  0.92  0
0.4  0.92  0
0.36  0.96  0
0.4  0.96  0
0.32  0.92  0
0.36  0.92  0
0.32  0.96  0
0.36  0.96  0
0.32  0.96  0
0.36  0.96  0
0.32  1  0
0.36  1  0
0.36  0.96  0
0.4  0.96  0
0.36  1  0
0.4  1  0
0.4  0.96  0
0.44  0.96  0
0.4  1  0
0.44  1  0
0.2  0.96  0
0.24  0.96  0
0.2  1  0
0.24  1  0
0.24  0.96  0
0.28  0.96  0
0.24  1  0
0.28  1  0
0.28  0.96  0
0.32  0.96  0
0.28  1  0
0.32  1  0
0.28  0.92  0
0.32  0.92  0
0.28  0.96  0
0.32  0.96  0
0.24  0.92  0
0.28  0.92  0
0.24  0.96  0
0.28  0.96  0
0.2  0.92  0
0.24  0.92  0
0.2  0.96  0
0.24  0.96  0
0.16  0.92  0
0.2  0.92  0
0.16  0.96  0
0.2  0.96  0
0.12  0.92  0
0.16  0.92  0
0.12  0.96  0
0.16  0.96  0
0.08  0.92  0
0.12  0.92  0
0.08  0.96  0
0.12  0.96  0
0.08  0.96  0
0.12  0.96  0
0.08  1  0
0.12  1  0
0.12  0.96  0
0.16  0.96  0
0.12  1  0
0.16  1  0
0.16  0.96  0
0.2  0.96  0
0.16  1  0
0.2  1  0
-3.46945e-17  0.96  0
0.04  0.96  0
-3.46945e-17  1  0
0.04  1  0
0.04  0.96  0
0.08  0.96  0
0.04  1  0
0.08  1  0
0.04  0.92  0
0.08  0.92  0
0.04  0.96  0
0.08  0.96  0
-3.46945e-17  0.92  0
0.04  0.92  0
-3.46945e-17  0.96  0
0.04  0.96  0
-3.46945e-17  0.88  0
0.04  0.88  0
-3.46945e-17  0.92  0
0.04  0.92  0
0.04  0.88  0
0.08  0.88  0
0.04  0.92  0
0.08  0.92  0
0.04  0.84  0
0.08  0.84  0
0.04  0.88  0
0.08  0.88  0
-3.46945e-17  0.84  0
0.04  0.84  0
-3.46945e-17  0.88  0
0.04  0.88  0
-3.46945e-17  0.8  0
0.04  0.8  0
-3.46945e-17  0.84  0
0.04  0.84  0
0.04  0.8  0
0.08  0.8  0
0.04  0.84  0
0.08  0.84  0
0.08  0.8  0
0.12  0.8  0
0.08  0.84  0
0.12  0.84  0
0.12  0.8  0
0.16  0.8  0
0.12  0.84  0
0.16  0.84  0
0.16  0.8  0
0.2  0.8  0
0.16  0.84  0
0.2  0.84  0
0.08  0.84  0
0.12  0.84  0
0.08  0.88  0
0.12  0.88  0
0.12  0.84  0
0.16  0.84  0
0.12  0.88  0
0.16  0.88  0
0.16  0.84  0
0.2  0.84  0
0.16  0.88  0
0.2  0.88  0
0.08  0.88  0
0.12  0.88  0
0.08  0.92  0
0.12  0.92  0
0.12  0.88  0
0.16  0.88  0
0.12  0.92  0
0.16  0.92  0
0.16  0.88  0
0.2  0.88  0
0.16  0.92  0
0.2  0.92  0
0.2  0.8  0
0.24  0.8  0
0.2  0.84  0
0.24  0.84  0
0.24  0.8  0
0.28  0.8  0
0.24  0.84  0
0.28  0.84  0
0.28  0.8  0
0.32  0.8  0
0.28  0.84  0
0.32  0.84  0
0.2  0.84  0
0.24  0.84  0
0.2  0.88  0
0.24  0.88  0
0.24  0.84  0
0.28  0.84  0
0.24  0.88  0
0.28  0.88  0
0.28  0.84  0
0.32  0.84  0
0.28  0.88  0
0.32  0.88  0
0.2  0.88  0
0.24  0.88  0
0.2  0.92  0
0.24  0.92  0
0.24  0.88  0
0.28  0.88  0
0.24  0.92  0
0.28  0.92  0
0.28  0.88  0
0.32  0.88  0
0.28  0.92  0
0.32  0.92  0
0.2  0.68  0
0.24  0.68  0
0.2  0.72  0
0.24  0.72  0
0.24  0.68  0
0.28  0.68  0
0.24  0.72  0
0.28  0.72  0
0.28  0.68  0
0.32  0.68  0
0.28  0.72  0
0.32  0.72  0
0.2  0.72  0
0.24  0.72  0
0.2  0.76  0
0.24  0.76  0
0.24  0.72  0
0.28  0.72  0
0.24  0.76  0
0.28  0.76  0
0.28  0.72  0
[...]
CELL_DATA 625

SCALARS Q float 5
LOOKUP_TABLE default
1.5 1.43062e-06 1.78382e-06 0 1.5 
1.5 -3.25316e-07 -2.22353e-07 0 1.5 
1.5 2.24007e-06 1.33654e-06 0 1.5 
1.5 -7.00661e-06 -6.58819e-06 0 1.5 
1.50001 2.05084e-05 2.07193e-05 0 1.50001 
1.49999 -4.32206e-05 -4.69167e-05 0 1.49999 
1.50001 3.77367e-05 5.11645e-05 0 1.50001 
1.49999 -2.27783e-05 -6.29829e-05 0 1.49999 
1.5 1.3894e-05 2.79528e-05 0 1.5 
1.5 -5.20791e-06 -8.4318e-06 0 1.5 
1.49987 -0.000374617 -0.000834618 0 1.49987 
1.50005 0.000152101 0.000183755 0 1.50005 
1.5 -4.68806e-06 6.00371e-05 0 1.5 
1.50004 0.000138953 0.000117534 0 1.50004 
1.49978 -0.000645159 -0.000662891 0 1.49978 
1.50029 0.0008629 0.000972564 0 1.50029 
1.50213 0.00625256 0.00664628 0 1.50213 
1.49779 -0.00645897 -0.00639001 0 1.49779 
1.5001 0.000333968 0.00020384 0 1.5001 
1.49777 -0.00616278 -0.00683195 0 1.49777 
1.5001 0.000244366 0.000291247 0 1.5001 
1.50043 0.00131326 0.0013174 0 1.50043 
1.50026 0.000600278 0.000852685 0 1.50026 
1.50041 0.00121904 0.00124458 0 1.50041 
1.49979 -0.000659418 -0.000666218 0 1.49979 
1.50038 0.00117962 0.00114759 0 1.50038 
1.4998 -0.000640482 -0.000582724 0 1.4998 
1.50005 0.000167441 0.000141165 0 1.50005 
1.49979 -0.000660646 -0.000636362 0 1.49979 
1.50004 0.000131881 0.000116266 0 1.50004 
1.50001 2.43546e-05 2.74807e-05 0 1.50001 
1.50003 0.000114959 0.000109239 0 1.50003 
1.50002 4.25502e-05 4.4788e-05 0 1.50002 
1.49999 -4.17594e-05 -4.11934e-05 0 1.49999 
1.50001 2.00302e-05 1.83622e-05 0 1.50001 
1.5 -8.89766e-06 -4.6155e-06 0 1.5 
1.5 2.26037e-05 9.80865e-06 0 1.5 
1.49999 -3.40018e-05 -2.99982e-05 0 1.49999 
1.5 -3.65516e-06 -4.09246e-06 0 1.5 
1.5 -2.7249e-05 -7.1685e-06 0 1.5 
1.49999 -4.29789e-05 -2.98922e-05 0 1.49999 
1.50006 0.000191711 0.000160543 0 1.50006 
1.49989 -0.00037319 -0.000304559 0 1.49989 
1.50004 0.000231059 9.58805e-05 0 1.50004 
1.5 -0.000174442 -2.58767e-05 0 1.5 
1.4999 -0.00029852 -0.000170264 0 1.4999 
1.49946 -0.00186542 -0.000668675 0 1.49946 
1.49883 -0.00385199 -0.00286834 0 1.49883 
1.50056 0.00190959 0.00124601 0 1.50056 
1.49821 -0.00576021 -0.00457732 0 1.49821 
1.50046 0.00160354 0.0010448 0 1.50046 
1.50008 0.000226272 0.000295396 0 1.50008 
1.50026 0.000882363 0.000556433 0 1.50026 
1.50026 0.00079971 0.000782061 0 1.50026 
1.49983 -0.000552191 -0.000485332 0 1.49983 
1.47498 -0.0725068 -0.0598821 0 1.47498 
1.50262 0.00850685 0.00553095 0 1.50262 
1.5072 0.0229979 0.0163995 0 1.5072 
1.49966 -0.000158188 -0.0015792 0 1.49966 
1.50834 0.0250246 0.0206424 0 1.50834 
1.50097 0.00303421 0.00312167 0 1.50097 
1.50888 0.0247085 0.0239549 0 1.50888 
1.502 0.00606571 0.00607618 0 1.502 
1.49792 -0.00643473 -0.00566647 0 1.49792 
1.36442 -0.3499 -0.367256 0 1.36442 
1.39439 -0.286772 -0.270543 0 1.39439 
1.43496 -0.184227 -0.16066 0 1.43496 
1.39567 -0.25492 -0.293872 0 1.39567 
1.43205 -0.175756 -0.184013 0 1.43205 
1.4703 -0.0793485 -0.0778377 0 1.4703 
1.43713 -0.146938 -0.183599 0 1.43713 
1.47162 -0.0698338 -0.0797714 0 1.47162 
1.49934 -0.00121149 -0.00215101 0 1.49934 
1.35231 -0.321184 -0.494651 0 1.35231 
1.35355 -0.335981 -0.464921 0 1.35355 
1.35338 -0.356314 -0.430208 0 1.35338 
1.35017 -0.283532 -0.500025 0 1.35017 
1.35726 -0.295085 -0.453728 0 1.35726 
1.36994 -0.294565 -0.387693 0 1.36994 
1.36606 -0.229902 -0.448125 0 1.36606 
1.38225 -0.228233 -0.377362 0 1.38225 
1.40557 -0.203815 -0.28791 0 1.40557 
1.37068 -0.181606 -0.546276 0 1.37068 
1.35714 -0.256385 -0.544118 0 1.35714 
1.35124 -0.301669 -0.5252 0 1.35124 
1.34649 -0.181907 -0.589083 0 1.34649 
1.34173 -0.237806 -0.572841 0 1.34173 
1.34451 -0.266952 -0.539138 0 1.34451 
1.34142 -0.171467 -0.580695 0 1.34142 
1.34523 -0.20249 -0.549302 0 1.34523 
1.35369 -0.221817 -0.504525 0 1.35369 
1.36289 -0.14011 -0.496306 0 1.36289 
1.3728 -0.15799 -0.45085 0 1.3728 
1.38629 -0.165048 -0.394737 0 1.38629 
1.40037 -0.0945018 -0.365118 0 1.40037 
1.41329 -0.103001 -0.311935 0 1.41329 
1.42908 -0.100014 -0.2495 0 1.42908 
1.44424 -0.0491614 -0.203675 0 1.44424 
1.457 -0.0474414 -0.15815 0 1.457 
1.47118 -0.0385397 -0.106139 0 1.47118 
1.40341 -0.161053 -0.326922 0 1.40341 
1.42411 -0.1444 -0.24669 0 1.42411 
1.44999 -0.105804 -0.15497 0 1.44999 
1.44689 -0.0877252 -0.180405 0 1.44689 
1.46727 -0.0623372 -0.106307 0 1.46727 
1.48907 -0.0237956 -0.0339033 0 1.48907 
1.48549 -0.0236461 -0.0517011 0 1.48549 
1.49909 -0.0024871 -0.0018255 0 1.49909 
1.50758 0.0150261 0.0262367 0 1.50758 
1.47871 -0.0488063 -0.0630075 0 1.47871 
1.50177 0.00401173 0.00538502 0 1.50177 
1.50905 0.0232201 0.0263631 0 1.50905 
1.5053 0.0110838 0.0168757 0 1.5053 
1.50839 0.0200672 0.0260583 0 1.50839 
1.50132 0.0039651 0.00419624 0 1.50132 
1.50652 0.0148058 0.0209531 0 1.50652 
1.49994 0.000553166 -0.000485864 0 1.49994 
1.49792 -0.00545171 -0.00648882 0 1.49792 
1.50054 0.00129558 0.00142372 0 1.50054 
1.49838 -0.00414566 -0.00484127 0 1.49838 
1.49844 -0.00296618 -0.0041964 0 1.49844 
1.4998 -0.000694608 -0.00430779 0 1.4998 
1.50057 0.00140592 0.00230416 0 1.50057 
1.49999 2.9969e-05 0.000839638 0 1.49999 
1.50259 0.00445825 0.0218626 0 1.50259 
1.49882 -0.00183312 0.00569757 0 1.49882 
1.49811 -0.00394635 -0.00708042 0 1.49811 
1.5038 0.00841503 0.0107534 0 1.5038 
1.50814 0.0148613 0.0243931 0 1.50814 
1.50594 0.00882918 0.0226955 0 1.50594 
1.49913 -0.00105749 0.00624921 0 1.49913 
1.49121 -0.00835934 -0.0192125 0 1.49121 
1.48321 -0.0139169 -0.0490163 0 1.48321 
1.5104 0.00859512 0.00949377 0 1.5104 
1.50938 0.00957173 0.0211276 0 1.50938 
1.50672 0.00871581 0.0267178 0 1.50672 
1.50545 -0.000618543 -0.0277046 0 1.50545 
1.50776 0.00256401 -0.0181549 0 1.50776 
1.50965 0.00576194 -0.00532516 0 1.50965 
1.47658 -0.0156581 -0.0775032 0 1.47658 
1.47193 -0.0141697 -0.101275 0 1.47193 
1.46948 -0.00998001 -0.116368 0 1.46948 
1.47081 -0.000165847 -0.117313 0 1.47081 
1.47461 0.0107541 -0.105073 0 1.47461 
1.47745 0.0164027 -0.0876538 0 1.47745 
1.5054 -0.00143049 -0.013505 0 1.5054 
1.50299 -0.00351036 -0.0261931 0 1.50299 
1.50331 -0.00350923 -0.0316064 0 1.50331 
1.51167 -0.000329156 0.0115669 0 1.51167 
1.50908 -0.000526553 0.000919845 0 1.50908 
1.47889 0.0152932 -0.0714004 0 1.47889 
1.4798 0.0066522 -0.0611869 0 1.4798 
1.42919 0.00769445 -0.251026 0 1.42919 
1.43104 0.0200145 -0.24768 0 1.43104 
1.37199 0.010902 -0.451265 0 1.37199 
1.36754 0.00293614 -0.459374 0 1.36754 
1.30668 -0.0036441 -0.649199 0 1.30668 
1.31153 -0.00399312 -0.638939 0 1.31153 
1.32021 0.00333673 -0.622228 0 1.32021 
1.33161 0.00704843 -0.60079 0 1.33161 
1.34403 0.00503275 -0.5779 0 1.34403 
1.37738 0.0201305 -0.44189 0 1.37738 
1.38223 0.0243759 -0.435614 0 1.38223 
1.38568 0.0171259 -0.434189 0 1.38568 
1.43243 0.025263 -0.246217 0 1.43243 
1.432 0.0234353 -0.250975 0 1.432 
1.42938 0.00988605 -0.261562 0 1.42938 
1.35334 -0.0136747 -0.560038 0 1.35334 
1.35574 -0.0588023 -0.54851 0 1.35574 
1.35667 -0.109305 -0.530422 0 1.35667 
1.38542 -0.00891604 -0.437384 0 1.38542 
1.3849 -0.0468753 -0.432783 0 1.3849 
1.3902 -0.0766889 -0.407472 0 1.3902 
1.42653 -0.0130612 -0.269139 0 1.42653 
1.4278 -0.0326263 -0.262106 0 1.4278 
1.43433 -0.0434386 -0.238955 0 1.43433 
1.31059 -0.177112 -0.703809 0 1.31059 
1.34295 -0.151637 -0.630968 0 1.34295 
1.3694 -0.13953 -0.568615 0 1.3694 
1.33087 -0.106903 -0.648723 0 1.33087 
1.35084 -0.0878749 -0.605826 0 1.35084 
1.35553 -0.112457 -0.589765 0 1.35553 
1.34115 -0.0473129 -0.613503 0 1.34115 
1.35145 -0.0675373 -0.588599 0 1.35145 
1.3462 -0.119042 -0.589073 0 1.3462 
1.24669 -0.151268 -0.863085 0 1.24669 
1.26701 -0.193807 -0.813456 0 1.26701 
1.28693 -0.195701 -0.76178 0 1.28693 
1.24708 -0.087451 -0.844627 0 1.24708 
1.27414 -0.112845 -0.783525 0 1.27414 
1.30408 -0.123211 -0.711778 0 1.30408 
1.27344 -0.0312791 -0.762262 0 1.27344 
1.29349 -0.0369934 -0.719302 0 1.29349 
1.31781 -0.0427716 -0.665129 0 1.31781 
1.26048 -0.0245414 -0.790664 0 1.26048 
1.25603 -0.0103143 -0.803498 0 1.25603 
1.22624 -0.01601 -0.895863 0 1.22624 
1.23076 -0.0525241 -0.881869 0 1.23076 
1.23341 -0.0822049 -0.89456 0 1.23341 
1.22782 -0.0227357 -0.906631 0 1.22782 
1.24834 -0.03371 -0.871911 0 1.24834 
1.25792 -0.111118 -0.856846 0 1.25792 
1.27733 -0.138494 -0.833493 0 1.27733 
1.26703 -0.0503734 -0.849973 0 1.26703 
1.28311 -0.0671851 -0.844365 0 1.28311 
1.28542 -0.154872 -0.835389 0 1.28542 
1.28771 -0.206229 -0.821398 0 1.28771 
1.30044 -0.2945 -0.784031 0 1.30044 
1.3084 -0.373977 -0.745817 0 1.3084 
1.2788 -0.196023 -0.824836 0 1.2788 
1.2762 -0.252957 -0.81633 0 1.2762 
1.28711 -0.322039 -0.779137 0 1.28711 
1.26473 -0.190557 -0.839248 0 1.26473 
1.26594 -0.235233 -0.826154 0 1.26594 
1.27607 -0.2553 -0.793689 0 1.27607 
1.31272 -0.411644 -0.710273 0 1.31272 
1.33215 -0.407289 -0.652616 0 1.33215 
1.3629 -0.365188 -0.582037 0 1.3629 
1.30635 -0.351227 -0.723085 0 1.30635 
1.32936 -0.330134 -0.66347 0 1.32936 
1.35911 -0.281726 -0.598287 0 1.35911 
1.30261 -0.267379 -0.728028 0 1.30261 
1.33645 -0.247813 -0.648455 0 1.33645 
1.3681 -0.203862 -0.577245 0 1.3681 
1.49907 -0.644546 -0.128935 0 1.49907 
1.45514 -0.628058 -0.248782 0 1.45514 
1.43792 -0.573917 -0.314226 0 1.43792 
1.34701 -0.578042 -0.650566 0 1.34701 
1.36538 -0.581337 -0.553319 0 1.36538 
1.39056 -0.521278 -0.480278 0 1.39056 
1.33478 -0.474436 -0.660862 0 1.33478 
1.35062 -0.489473 -0.59769 0 1.35062 
1.3745 -0.445151 -0.539788 0 1.3745 
1.45074 -0.5273 -0.440327 0 1.45074 
1.53042 -0.67388 -0.120277 0 1.53042 
1.53736 -0.671477 -0.0462927 0 1.53736 
1.28653 -0.29092 -0.910428 0 1.28653 
1.29541 -0.393456 -0.886334 0 1.29541 
1.32494 -0.507592 -0.770134 0 1.32494 
1.30595 -0.276374 -0.806915 0 1.30595 
1.32456 -0.358241 -0.751493 0 1.32456 
1.3282 -0.414182 -0.713658 0 1.3282 
1.28544 -0.169106 -0.861298 0 1.28544 
1.28945 -0.0684245 -0.870944 0 1.28945 
1.29476 -0.0626209 -0.897463 0 1.29476 
1.29238 -0.204225 -0.882862 0 1.29238 
1.36681 -0.225166 -0.715941 0 1.36681 
1.36372 -0.0702279 -0.730613 0 1.36372 
1.48849 -0.100577 -0.371856 0 1.48849 
1.60837 -0.666013 0.0167003 0 1.60837 
1.71191 -0.935036 0.211901 0 1.71191 
1.62075 -0.476756 -0.0171281 0 1.62075 
1.66559 -0.718359 -0.11365 0 1.66559 
1.64285 -0.889143 -0.0695799 0 1.64285 
1.5801 -0.743825 -0.101133 0 1.5801 
1.53646 -0.673225 -0.152441 0 1.53646 
1.4997 -0.651051 -0.167688 0 1.4997 
1.63698 -0.86127 0.139232 0 1.63698 
1.57695 -0.728721 0.06855 0 1.57695 
1.5511 -0.649656 0.0363676 0 1.5511 
1.67528 -0.90732 0.322817 0 1.67528 
1.65424 -0.809559 0.324196 0 1.65424 
1.62068 -0.6846 0.278198 0 1.62068 
1.48191 -0.614269 -0.164458 0 1.48191 
1.4913 -0.522064 -0.134463 0 1.4913 
1.52177 -0.388572 -0.0922175 0 1.52177 
1.53983 -0.592588 0.0469812 0 1.53983 
1.54807 -0.493957 0.0761677 0 1.54807 
1.55916 -0.389545 0.0752812 0 1.55916 
1.59336 -0.60571 0.235091 0 1.59336 
1.56482 -0.545853 0.150758 0 1.56482 
1.53 -0.493111 0.00912308 0 1.53 
1.54823 -0.277367 -0.0816164 0 1.54823 
1.5347 -0.296892 -0.0965222 0 1.5347 
1.48619 -0.424952 -0.0816952 0 1.48619 
1.45338 -0.488886 -0.0428375 0 1.45338 
1.42987 -0.512049 -0.0548603 0 1.42987 
1.4011 -0.549078 -0.0785857 0 1.4011 
1.37918 -0.57601 -0.0733747 0 1.37918 
1.36562 -0.5872 -0.0527734 0 1.36562 
1.35412 -0.595563 -0.0441811 0 1.35412 
1.5515 -0.331427 0.00634852 0 1.5515 
1.52531 -0.346827 -0.0896214 0 1.52531 
1.48778 -0.411359 -0.121642 0 1.48778 
1.44016 -0.50162 -0.130403 0 1.44016 
1.41036 -0.538861 -0.153522 0 1.41036 
1.39589 -0.543149 -0.149036 0 1.39589 
1.38261 -0.554672 -0.122325 0 1.38261 
1.36744 -0.572713 -0.103756 0 1.36744 
1.3501 -0.596765 -0.0993783 0 1.3501 
1.50253 -0.44647 -0.127755 0 1.50253 
1.48943 -0.393312 -0.199275 0 1.48943 
1.46155 -0.415841 -0.231804 0 1.46155 
1.41997 -0.503703 -0.23247 0 1.41997 
1.40187 -0.527917 -0.21351 0 1.40187 
1.3951 -0.520542 -0.193774 0 1.3951 
1.38155 -0.534983 -0.174192 0 1.38155 
1.36326 -0.563747 -0.162706 0 1.36326 
1.34542 -0.592339 -0.155446 0 1.34542 
1.44555 -0.475866 -0.324188 0 1.44555 
1.45282 -0.398288 -0.326075 0 1.45282 
1.43889 -0.41238 -0.316884 0 1.43889 
1.41118 -0.482519 -0.284668 0 1.41118 
1.39559 -0.507668 -0.261161 0 1.39559 
1.38824 -0.504272 -0.246938 0 1.38824 
1.37507 -0.52025 -0.231959 0 1.37507 
1.3571 -0.553378 -0.218767 0 1.3571 
1.34342 -0.576929 -0.20121 0 1.34342 
1.41587 -0.434734 -0.431889 0 1.41587 
1.43219 -0.372445 -0.394286 0 1.43219 
1.42469 -0.389732 -0.362661 0 1.42469 
1.39886 -0.461174 -0.339083 0 1.39886 
1.38441 -0.487656 -0.320421 0 1.38441 
1.37873 -0.486426 -0.301875 0 1.37873 
1.36842 -0.502494 -0.281406 0 1.36842 
1.35383 -0.535709 -0.259497 0 1.35383 
1.34518 -0.550966 -0.232816 0 1.34518 
1.40162 -0.373963 -0.48403 0 1.40162 
1.41817 -0.32896 -0.438012 0 1.41817 
1.40722 -0.367672 -0.41181 0 1.40722 
1.38428 -0.439683 -0.391581 0 1.38428 
1.37519 -0.461667 -0.366625 0 1.37519 
1.37269 -0.462144 -0.339328 0 1.37269 
1.36539 -0.479442 -0.31281 0 1.36539 
1.35163 -0.514905 -0.290119 0 1.35163 
1.34765 -0.518021 -0.261816 0 1.34765 
1.39273 -0.306973 -0.516494 0 1.39273 
1.40522 -0.29094 -0.470397 0 1.40522 
1.39077 -0.353336 -0.447661 0 1.39077 
1.37333 -0.417236 -0.42723 0 1.37333 
1.36943 -0.431171 -0.397458 0 1.36943 
1.36857 -0.433714 -0.36774 0 1.36857 
1.35953 -0.458964 -0.345732 0 1.35953 
1.34632 -0.494074 -0.327097 0 1.34632 
1.35339 -0.469235 -0.284644 0 1.35339 
1.38646 -0.240286 -0.5359 0 1.38646 
1.38998 -0.262698 -0.499622 0 1.38998 
1.37276 -0.340784 -0.485361 0 1.37276 
1.36251 -0.387473 -0.46195 0 1.36251 
1.36246 -0.396727 -0.429707 0 1.36246 
1.36068 -0.407686 -0.40296 0 1.36068 
1.34973 -0.442865 -0.384587 0 1.34973 
1.34686 -0.456439 -0.349664 0 1.34686 
1.37083 -0.392846 -0.276404 0 1.37083 
1.38354 -0.193458 -0.533348 0 1.38354 
1.37323 -0.255489 -0.522481 0 1.37323 
1.35858 -0.325331 -0.512649 0 1.35858 
1.35557 -0.354178 -0.484468 0 1.35557 
1.35707 -0.364733 -0.453233 0 1.35707 
1.35318 -0.386891 -0.429021 0 1.35318 
1.34866 -0.41314 -0.397188 0 1.34866 
1.36392 -0.385555 -0.329503 0 1.36392 
1.40026 -0.293243 -0.230051 0 1.40026 
1.38685 -0.365851 -0.210582 0 1.38685 
1.43222 -0.222874 -0.122786 0 1.43222 
1.47589 -0.0801672 -0.042486 0 1.47589 
1.41299 -0.27195 -0.179127 0 1.41299 
1.45844 -0.133113 -0.0824601 0 1.45844 
1.49492 -0.0167273 -0.00948992 0 1.49492 
1.44423 -0.169565 -0.124029 0 1.44423 
1.48403 -0.0496723 -0.0342059 0 1.48403 
1.50639 0.0207921 0.0133389 0 1.50639 
1.50419 0.0144846 0.00733197 0 1.50419 
1.50648 0.0226975 0.0116344 0 1.50648 
1.49872 -0.00467123 -0.00204763 0 1.49872 
1.50828 0.0280337 0.0160191 0 1.50828 
1.50152 0.00516165 0.00316229 0 1.50152 
1.49822 -0.00610916 -0.00337644 0 1.49822 
1.50488 0.0163002 0.0103159 0 1.50488 
1.49827 -0.00596349 -0.00329234 0 1.49827 
1.49971 -0.000890759 -0.00080828 0 1.49971 
1.5004 0.00137007 0.000875364 0 1.5004 
1.49988 -0.000689405 -0.000258157 0 1.49988 
1.49998 0.000527679 1.78984e-06 0 1.49998 
1.50045 0.00135937 0.000766274 0 1.50045 
1.4993 -0.00250641 -0.00137023 0 1.4993 
1.50035 0.00229832 0.00066026 0 1.50035 
1.50047 0.000884877 0.000718792 0 1.50047 
1.49802 -0.0063783 -0.00319216 0 1.49802 
1.49843 -0.00480911 -0.00175781 0 1.49843 
1.49991 -0.0037525 -0.000258341 0 1.49991 
1.49912 -0.00696747 -0.000951944 0 1.49912 
1.5002 0.000696136 0.000564739 0 1.5002 
1.46927 -0.11262 -0.0309263 0 1.46927 
1.49947 -0.000908809 -0.000929622 0 1.49947 
1.50707 0.0272245 0.00661834 0 1.50707 
1.48027 -0.0694326 -0.0261123 0 1.48027 
1.50481 0.0183523 0.0056175 0 1.50481 
1.50563 0.0204424 0.00742989 0 1.50563 
1.49307 -0.0231739 -0.011125 0 1.49307 
1.50812 0.0291704 0.0123848 0 1.50812 
1.50211 0.00710672 0.00375742 0 1.50211 
1.35054 -0.539594 -0.170565 0 1.35054 
1.38248 -0.425153 -0.126322 0 1.38248 
1.42652 -0.268754 -0.0762779 0 1.42652 
1.35898 -0.496646 -0.193183 0 1.35898 
1.39502 -0.371004 -0.138572 0 1.39502 
1.4396 -0.214926 -0.0789513 0 1.4396 
1.36977 -0.440774 -0.210718 0 1.36977 
1.41073 -0.30436 -0.141252 0 1.41073 
1.45599 -0.150787 -0.0689172 0 1.45599 
1.3482 -0.587285 -0.0500379 0 1.3482 
1.36222 -0.518417 -0.0468788 0 1.36222 
1.3993 -0.377346 -0.0305236 0 1.3993 
1.34499 -0.58609 -0.0979824 0 1.34499 
1.36549 -0.500166 -0.0822423 0 1.36549 
1.4058 -0.351562 -0.0525688 0 1.4058 
1.34534 -0.570644 -0.139899 0 1.34534 
1.37227 -0.46866 -0.108436 0 1.37227 
1.41517 -0.314451 -0.0675434 0 1.41517 
1.44649 -0.201501 -0.0124818 0 1.44649 
1.48817 -0.0446166 -0.00111023 0 1.48817 
1.50765 0.0307165 0.00153805 0 1.50765 
1.45214 -0.180236 -0.0223606 0 1.45214 
1.49085 -0.0344983 -0.00240219 0 1.49085 
1.50736 0.0296213 0.0029812 0 1.50736 
1.46004 -0.149652 -0.0285795 0 1.46004 
1.49466 -0.0195489 -0.00293844 0 1.49466 
1.50722 0.0288671 0.00434586 0 1.50722 
1.50178 0.0056918 0.00115488 0 1.50178 
1.49866 -0.00741085 -0.000778763 0 1.49866 
1.49845 -0.00745969 -0.000309504 0 1.49845 
1.50267 0.0089011 0.000416249 0 1.50267 
1.50318 0.010855 -0.000116966 0 1.50318 
1.4983 -0.00828787 -2.89198e-05 0 1.4983 
1.49825 -0.0089392 0.000182023 0 1.49825 
1.50324 0.0111938 -0.000294096 0 1.50324 
1.50275 0.0096851 5.90237e-05 0 1.50275 
1.49842 -0.00842558 0.00020431 0 1.49842 
1.4987 -0.00686655 0.000100369 0 1.4987 
1.50211 0.00743761 0.000405089 0 1.50211 
1.45181 -0.181285 0.0208969 0 1.45181 
1.4912 -0.0337223 0.000123972 0 1.4912 
1.50717 0.0283204 -0.00350978 0 1.50717 
1.44569 -0.203558 0.0118274 0 1.44569 
1.48835 -0.0438977 0.000268009 0 1.48835 
1.50789 0.0311586 -0.00241529 0 1.50789 
1.44401 -0.210325 -0.000446239 0 1.44401 
1.48726 -0.0479067 0.000184887 0 1.48726 
1.5079 0.0315687 -0.000415692 0 1.5079 
1.34928 -0.577733 0.0973182 0 1.34928 
1.36223 -0.509278 0.0767443 0 1.36223 
1.40319 -0.358895 0.050098 0 1.40319 
1.34925 -0.584459 0.0382975 0 1.34925 
1.36144 -0.522128 0.0385288 0 1.36144 
1.39813 -0.381316 0.0281474 0 1.39813 
1.35078 -0.583846 -0.00326565 0 1.35078 
1.36171 -0.524199 -0.0039629 0 1.36171 
1.3965 -0.388241 -0.00252565 0 1.3965 
1.34369 -0.530351 0.132759 0 1.34369 
1.39675 -0.369867 0.124304 0 1.39675 
1.44365 -0.208356 0.0833322 0 1.44365 
1.34832 -0.539762 0.16925 0 1.34832 
1.38783 -0.412068 0.13349 0 1.38783 
1.42849 -0.266273 0.0732193 0 1.42849 
1.35022 -0.559472 0.157419 0 1.35022 
1.37223 -0.469135 0.115983 0 1.37223 
1.41302 -0.32069 0.0609974 0 1.41302 
1.47837 -0.0782365 0.0290543 0 1.47837 
1.50093 0.00487233 -0.00387021 0 1.50093 
1.50576 0.0214239 -0.00616005 0 1.50576 
1.46747 -0.12102 0.0237153 0 1.46747 
1.49746 -0.00860844 0.00112258 0 1.49746 
1.50632 0.0247765 -0.00359805 0 1.50632 
1.45943 -0.152823 0.0223558 0 1.45943 
1.49469 -0.0205418 0.00166255 0 1.49469 
1.50632 0.025284 -0.00332283 0 1.50632 
1.50155 0.00511793 -0.000369697 0 1.50155 
1.4989 -0.00569458 0.000336329 0 1.4989 
1.49911 -0.00589102 0.00081679 0 1.49911 
1.50066 0.00203931 -0.00120421 0 1.50066 
1.49934 -0.00194429 0.000705414 0 1.49934 
1.49957 -0.00498638 0.000485185 0 1.49957 
1.50017 -0.00103997 -0.000497579 0 1.50017 
1.49863 -0.00420842 0.00333664 0 1.49863 
1.49903 -0.00346078 0.00226611 0 1.49903 
1.50048 0.00294338 -0.000547648 0 1.50048 
1.5055 0.0181292 0.0121514 0 1.5055 
1.50995 0.0350841 -0.00580135 0 1.50995 
1.49816 -0.00662856 -0.00299006 0 1.49816 
1.50246 0.0085786 -0.00653418 0 1.50246 
1.50587 0.0216134 -0.00996036 0 1.50587 
1.49318 -0.0240359 0.0279896 0 1.49318 
1.45398 -0.162077 0.0753783 0 1.45398 
1.3949 -0.353248 0.0933744 0 1.3949 
1.33194 -0.537967 0.0814516 0 1.33194 
1.31889 -0.549781 0.0283545 0 1.31889 
1.38961 -0.350334 0.0364251 0 1.38961 
1.45899 -0.136417 0.0313207 0 1.45899 
1.20729 -0.837015 -0.0342116 0 1.20729 
1.21902 -0.804531 -0.0166932 0 1.21902 
1.25887 -0.705482 0.00961987 0 1.25887 
1.27699 -0.681523 0.0489714 0 1.27699 
1.23586 -0.773695 0.00277564 0 1.23586 
1.21219 -0.814627 -0.0481773 0 1.21219 
1.20918 -0.81328 -0.0860664 0 1.20918 
1.22156 -0.789264 -0.0976179 0 1.22156 
1.23687 -0.760374 -0.0951592 0 1.23687 
1.23538 -0.762068 -0.0118239 0 1.23538 
1.22908 -0.786 -0.0136904 0 1.22908 
1.21703 -0.817304 -0.0273519 0 1.21703 
1.30592 -0.493376 -0.0114337 0 1.30592 