# vtk DataFile Version 2.0
 Generated by Peano3 output component $Revision: 1.2 $ Author: Tobias Weinzierl
 ASCII
 

DATASET UNSTRUCTURED_GRID
POINTS 2500 float

0.92  0.96  0
0.96  0.96  0
0.92  1  0
0.96  1  0
0.96  0.96  0
1  0.96  0
0.96  1  0
1  1  0
0.96  0.92  0
1  0.92  0
0.96  0.96  0
1  0.96  0
0.92  0.92  0
0.96  0.92  0
0.92  0.96  0
0.96  0.96  0
0.88  0.92  0
0.92  0.92  0
0.88  0.96  0
0.92  0.96  0
0.84  0.92  0
0.88  0.92  0
0.84  0.96  0
0.88  0.96  0
0.8  0.92  0
0.84  0.92  0
0.8  0.96  0
0.84  0.96  0
0.8  0.96  0
0.84  0.96  0
0.8  1  0
0.84  1  0
0.84  0.96  0
0.88  0.96  0
0.84  1  0
0.88  1  0
0.88  0.96  0
0.92  0.96  0
0.88  1  0
0.92  1  0
0.68  0.96  0
0.72  0.96  0
0.68  1  0
0.72  1  0
0.72  0.96  0
0.76  0.96  0
0.72  1  0
0.76  1  0
0.76  0.96  0
0.8  0.96  0
0.76  1  0
0.8  1  0
0.76  0.92  0
0.8  0.92  0
0.76  0.96  0
0.8  0.96  0
0.72  0.92  0
0.76  0.92  0
0.72  0.96  0
0.76  0.96  0
0.68  0.92  0
0.72  0.92  0
0.68  0.96  0
0.72  0.96  0
0.68  0.8  0
0.72  0.8  0
0.68  0.84  0
0.72  0.84  0
0.72  0.8  0
0.76  0.8  0
0.72  0.84  0
0.76  0.84  0
0.76  0.8  0
0.8  0.8  0
0.76  0.84  0
0.8  0.84  0
0.68  0.84  0
0.72  0.84  0
0.68  0.88  0
0.72  0.88  0
0.72  0.84  0
0.76  0.84  0
0.72  0.88  0
0.76  0.88  0
0.76  0.84  0
0.8  0.84  0
0.76  0.88  0
0.8  0.88  0
0.68  0.88  0
0.72  0.88  0
0.68  0.92  0
0.72  0.92  0
0.72  0.88  0
0.76  0.88  0
0.72  0.92  0
0.76  0.92  0
0.76  0.88  0
0.8  0.88  0
0.76  0.92  0
0.8  0.92  0
0.8  0.8  0
0.84  0.8  0
0.8  0.84  0
0.84  0.84  0
0.84  0.8  0
0.88  0.8  0
0.84  0.84  0
0.88  0.84  0
0.88  0.8  0
0.92  0.8  0
0.88  0.84  0
0.92  0.84  0
0.8  0.84  0
0.84  0.84  0
0.8  0.88  0
0.84  0.88  0
0.84  0.84  0
0.88  0.84  0
0.84  0.88  0
0.88  0.88  0
0.88  0.84  0
0.92  0.84  0
0.88  0.88  0
0.92  0.88  0
0.8  0.88  0
0.84  0.88  0
0.8  0.92  0
0.84  0.92  0
0.84  0.88  0
0.88  0.88  0
0.84  0.92  0
0.88  0.92  0
0.88  0.88  0
0.92  0.88  0
0.88  0.92  0
0.92  0.92  0
0.92  0.88  0
0.96  0.88  0
0.92  0.92  0
0.96  0.92  0
0.96  0.88  0
1  0.88  0
0.96  0.92  0
1  0.92  0
0.96  0.84  0
1  0.84  0
0.96  0.88  0
1  0.88  0
0.92  0.84  0
0.96  0.84  0
0.92  0.88  0
0.96  0.88  0
0.92  0.8  0
0.96  0.8  0
0.92  0.84  0
0.96  0.84  0
0.96  0.8  0
1  0.8  0
0.96  0.84  0
1  0.84  0
0.96  0.76  0
1  0.76  0
0.96  0.8  0
1  0.8  0
0.92  0.76  0
0.96  0.76  0
0.92  0.8  0
0.96  0.8  0
0.92  0.72  0
0.96  0.72  0
0.92  0.76  0
0.96  0.76  0
0.96  0.72  0
1  0.72  0
0.96  0.76  0
1  0.76  0
0.96  0.68  0
1  0.68  0
0.96  0.72  0
1  0.72  0
0.92  0.68  0
0.96  0.68  0
0.92  0.72  0
0.96  0.72  0
0.8  0.68  0
0.84  0.68  0
0.8  0.72  0
0.84  0.72  0
0.84  0.68  0
0.88  0.68  0
0.84  0.72  0
0.88  0.72  0
0.88  0.68  0
0.92  0.68  0
0.88  0.72  0
0.92  0.72  0
0.8  0.72  0
0.84  0.72  0
0.8  0.76  0
0.84  0.76  0
0.84  0.72  0
0.88  0.72  0
0.84  0.76  0
0.88  0.76  0
0.88  0.72  0
0.92  0.72  0
0.88  0.76  0
0.92  0.76  0
0.8  0.76  0
0.84  0.76  0
0.8  0.8  0
0.84  0.8  0
0.84  0.76  0
0.88  0.76  0
0.84  0.8  0
0.88  0.8  0
0.88  0.76  0
0.92  0.76  0
0.88  0.8  0
0.92  0.8  0
0.68  0.68  0
0.72  0.68  0
0.68  0.72  0
0.72  0.72  0
0.72  0.68  0
0.76  0.68  0
0.72  0.72  0
0.76  0.72  0
0.76  0.68  0
0.8  0.68  0
0.76  0.72  0
0.8  0.72  0
0.68  0.72  0
0.72  0.72  0
0.68  0.76  0
0.72  0.76  0
0.72  0.72  0
0.76  0.72  0
0.72  0.76  0
0.76  0.76  0
0.76  0.72  0
0.8  0.72  0
0.76  0.76  0
0.8  0.76  0
0.68  0.76  0
0.72  0.76  0
0.68  0.8  0
0.72  0.8  0
0.72  0.76  0
0.76  0.76  0
0.72  0.8  0
0.76  0.8  0
0.76  0.76  0
0.8  0.76  0
0.76  0.8  0
0.8  0.8  0
0.56  0.68  0
0.6  0.68  0
0.56  0.72  0
0.6  0.72  0
0.6  0.68  0
0.64  0.68  0
0.6  0.72  0
0.64  0.72  0
0.64  0.68  0
0.68  0.68  0
0.64  0.72  0
0.68  0.72  0
0.56  0.72  0
0.6  0.72  0
0.56  0.76  0
0.6  0.76  0
0.6  0.72  0
0.64  0.72  0
0.6  0.76  0
0.64  0.76  0
0.64  0.72  0
0.68  0.72  0
0.64  0.76  0
0.68  0.76  0
0.56  0.76  0
0.6  0.76  0
0.56  0.8  0
0.6  0.8  0
0.6  0.76  0
0.64  0.76  0
0.6  0.8  0
0.64  0.8  0
0.64  0.76  0
0.68  0.76  0
0.64  0.8  0
0.68  0.8  0
0.44  0.68  0
0.48  0.68  0
0.44  0.72  0
0.48  0.72  0
0.48  0.68  0
0.52  0.68  0
0.48  0.72  0
0.52  0.72  0
0.52  0.68  0
0.56  0.68  0
0.52  0.72  0
0.56  0.72  0
0.44  0.72  0
0.48  0.72  0
0.44  0.76  0
0.48  0.76  0
0.48  0.72  0
0.52  0.72  0
0.48  0.76  0
0.52  0.76  0
0.52  0.72  0
0.56  0.72  0
0.52  0.76  0
0.56  0.76  0
0.44  0.76  0
0.48  0.76  0
0.44  0.8  0
0.48  0.8  0
0.48  0.76  0
0.52  0.76  0
0.48  0.8  0
0.52  0.8  0
0.52  0.76  0
0.56  0.76  0
0.52  0.8  0
0.56  0.8  0
0.32  0.68  0
0.36  0.68  0
0.32  0.72  0
0.36  0.72  0
0.36  0.68  0
0.4  0.68  0
0.36  0.72  0
0.4  0.72  0
0.4  0.68  0
0.44  0.68  0
0.4  0.72  0
0.44  0.72  0
0.32  0.72  0
0.36  0.72  0
0.32  0.76  0
0.36  0.76  0
0.36  0.72  0
0.4  0.72  0
0.36  0.76  0
0.4  0.76  0
0.4  0.72  0
0.44  0.72  0
0.4  0.76  0
0.44  0.76  0
0.32  0.76  0
0.36  0.76  0
0.32  0.8  0
0.36  0.8  0
0.36  0.76  0
0.4  0.76  0
0.36  0.8  0
0.4  0.8  0
0.4  0.76  0
0.44  0.76  0
0.4  0.8  0
0.44  0.8  0
0.32  0.8  0
0.36  0.8  0
0.32  0.84  0
0.36  0.84  0
0.36  0.8  0
0.4  0.8  0
0.36  0.84  0
0.4  0.84  0
0.4  0.8  0
0.44  0.8  0
0.4  0.84  0
0.44  0.84  0
0.32  0.84  0
0.36  0.84  0
0.32  0.88  0
0.36  0.88  0
0.36  0.84  0
0.4  0.84  0
0.36  0.88  0
0.4  0.88  0
0.4  0.84  0
0.44  0.84  0
0.4  0.88  0
0.44  0.88  0
0.32  0.88  0
0.36  0.88  0
0.32  0.92  0
0.36  0.92  0
0.36  0.88  0
0.4  0.88  0
0.36  0.92  0
0.4  0.92  0
0.4  0.88  0
0.44  0.88  0
0.4  0.92  0
0.44  0.92  0
0.44  0.8  0
0.48  0.8  0
0.44  0.84  0
0.48  0.84  0
0.48  0.8  0
0.52  0.8  0
0.48  0.84  0
0.52  0.84  0
0.52  0.8  0
0.56  0.8  0
0.52  0.84  0
0.56  0.84  0
0.44  0.84  0
0.48  0.84  0
0.44  0.88  0
0.48  0.88  0
0.48  0.84  0
0.52  0.84  0
0.48  0.88  0
0.52  0.88  0
0.52  0.84  0
0.56  0.84  0
0.52  0.88  0
0.56  0.88  0
0.44  0.88  0
0.48  0.88  0
0.44  0.92  0
0.48  0.92  0
0.48  0.88  0
0.52  0.88  0
0.48  0.92  0
0.52  0.92  0
0.52  0.88  0
0.56  0.88  0
0.52  0.92  0
0.56  0.92  0
0.56  0.8  0
0.6  0.8  0
0.56  0.84  0
0.6  0.84  0
0.6  0.8  0
0.64  0.8  0
0.6  0.84  0
0.64  0.84  0
0.64  0.8  0
0.68  0.8  0
0.64  0.84  0
0.68  0.84  0
0.56  0.84  0
0.6  0.84  0
0.56  0.88  0
0.6  0.88  0
0.6  0.84  0
0.64  0.84  0
0.6  0.88  0
0.64  0.88  0
0.64  0.84  0
0.68  0.84  0
0.64  0.88  0
0.68  0.88  0
0.56  0.88  0
0.6  0.88  0
0.56  0.92  0
0.6  0.92  0
0.6  0.88  0
0.64  0.88  0
0.6  0.92  0
0.64  0.92  0
0.64  0.88  0
0.68  0.88  0
0.64  0.92  0
0.68  0.92  0
0.64  0.92  0
0.68  0.92  0
0.64  0.96  0
0.68  0.96  0
0.6  0.92  0
0.64  0.92  0
0.6  0.96  0
0.64  0.96  0
0.56  0.92  0
0.6  0.92  0
0.56  0.96  0
0.6  0.96  0
0.56  0.96  0
0.6  0.96  0
0.56  1  0
0.6  1  0
0.6  0.96  0
0.64  0.96  0
0.6  1  0
0.64  1  0
0.64  0.96  0
0.68  0.96  0
0.64  1  0
0.68  1  0
0.44  0.96  0
0.48  0.96  0
0.44  1  0
0.48  1  0
0.48  0.96  0
0.52  0.96  0
0.48  1  0
0.52  1  0
0.52  0.96  0
0.56  0.96  0
0.52  1  0
0.56  1  0
0.52  0.92  0
0.56  0.92  0
0.52  0.96  0
0.56  0.96  0
0.48  0.92  0
0.52  0.92  0
0.48  0.96  0
0.52  0.96  0
0.44  0.92  0
0.48  0.92  0
0.44  0.96  0
0.48  0.96  0
0.4  0.92  0
0.44  0.92  0
0.4  0.96  0
0.44  0.96  0
0.36  0.92  0
0.4  0.92  0
0.36  0.96  0
0.4  0.96  0
0.32  0.92  0
0.36  0.92  0
0.32  0.96  0
0.36  0.96  0
0.32  0.96  0
0.36  0.96  0
0.32  1  0
0.36  1  0
0.36  0.96  0
0.4  0.96  0
0.36  1  0
0.4  1  0
0.4  0.96  0
0.44  0.96  0
0.4  1  0
0.44  1  0
0.2  0.96  0
0.24  0.96  0
0.2  1  0
0.24  1  0
0.24  0.96  0
0.28  0.96  0
0.24  1  0
0.28  1  0
0.28  0.96  0
0.32  0.96  0
0.28  1  0
0.32  1  0
0.28  0.92  0
0.32  0.92  0
0.28  0.96  0
0.32  0.96  0
0.24  0.92  0
0.28  0.92  0
0.24  0.96  0
0.28  0.96  0
0.2  0.92  0
0.24  0.92  0
0.2  0.96  0
0.24  0.96  0
0.16  0.92  0
0.2  0.92  0
0.16  0.96  0
0.2  0.96  0
0.12  0.92  0
0.16  0.92  0
0.12  0.96  0
0.16  0.96  0
0.08  0.92  0
0.12  0.92  0
0.08  0.96  0
0.12  0.96  0
0.08  0.96  0
0.12  0.96  0
0.08  1  0
0.12  1  0
0.12  0.96  0
0.16  0.96  0
0.12  1  0
0.16  1  0
0.16  0.96  0
0.2  0.96  0
0.16  1  0
0.2  1  0
-3.46945e-17  0.96  0
0.04  0.96  0
-3.46945e-17  1  0
0.04  1  0
0.04  0.96  0
0.08  0.96  0
0.04  1  0
0.08  1  0
0.04  0.92  0
0.08  0.92  0
0.04  0.96  0
0.08  0.96  0
-3.46945e-17  0.92  0
0.04  0.92  0
-3.46945e-17  0.96  0
0.04  0.96  0
-3.46945e-17  0.88  0
0.04  0.88  0
-3.46945e-17  0.92  0
0.04  0.92  0
0.04  0.88  0
0.08  0.88  0
0.04  0.92  0
0.08  0.92  0
0.04  0.84  0
0.08  0.84  0
0.04  0.88  0
0.08  0.88  0
-3.46945e-17  0.84  0
0.04  0.84  0
-3.46945e-17  0.88  0
0.04  0.88  0
-3.46945e-17  0.8  0
0.04  0.8  0
-3.46945e-17  0.84  0
0.04  0.84  0
0.04  0.8  0
0.08  0.8  0
0.04  0.84  0
0.08  0.84  0
0.08  0.8  0
0.12  0.8  0
0.08  0.84  0
0.12  0.84  0
0.12  0.8  0
0.16  0.8  0
0.12  0.84  0
0.16  0.84  0
0.16  0.8  0
0.2  0.8  0
0.16  0.84  0
0.2  0.84  0
0.08  0.84  0
0.12  0.84  0
0.08  0.88  0
0.12  0.88  0
0.12  0.84  0
0.16  0.84  0
0.12  0.88  0
0.16  0.88  0
0.16  0.84  0
0.2  0.84  0
0.16  0.88  0
0.2  0.88  0
0.08  0.88  0
0.12  0.88  0
0.08  0.92  0
0.12  0.92  0
0.12  0.88  0
0.16  0.88  0
0.12  0.92  0
0.16  0.92  0
0.16  0.88  0
0.2  0.88  0
0.16  0.92  0
0.2  0.92  0
0.2  0.8  0
0.24  0.8  0
0.2  0.84  0
0.24  0.84  0
0.24  0.8  0
0.28  0.8  0
0.24  0.84  0
0.28  0.84  0
0.28  0.8  0
0.32  0.8  0
0.28  0.84  0
0.32  0.84  0
0.2  0.84  0
0.24  0.84  0
0.2  0.88  0
0.24  0.88  0
0.24  0.84  0
0.28  0.84  0
0.24  0.88  0
0.28  0.88  0
0.28  0.84  0
0.32  0.84  0
0.28  0.88  0
0.32  0.88  0
0.2  0.88  0
0.24  0.88  0
0.2  0.92  0
0.24  0.92  0
0.24  0.88  0
0.28  0.88  0
0.24  0.92  0
0.28  0.92  0
0.28  0.88  0
0.32  0.88  0
0.28  0.92  0
0.32  0.92  0
0.2  0.68  0
0.24  0.68  0
0.2  0.72  0
0.24  0.72  0
0.24  0.68  0
0.28  0.68  0
0.24  0.72  0
0.28  0.72  0
0.28  0.68  0
0.32  0.68  0
0.28  0.72  0
0.32  0.72  0
0.2  0.72  0
0.24  0.72  0
0.2  0.76  0
0.24  0.76  0
0.24  0.72  0
0.28  0.72  0
0.24  0.76  0
0.28  0.76  0
0.28  0.72  0
[...]
CELL_DATA 625

SCALARS Q float 5
LOOKUP_TABLE default
1.5 4.51922e-13 4.24492e-13 0 1.5 
1.5 4.97703e-15 4.92902e-15 0 1.5 
1.5 4.2287e-13 3.99832e-13 0 1.5 
1.5 1.04395e-11 9.79296e-12 0 1.5 
1.5 1.19524e-10 1.14679e-10 0 1.5 
1.5 8.2421e-10 8.16531e-10 0 1.5 
1.5 2.94466e-09 2.99943e-09 0 1.5 
1.5 8.68558e-10 7.01618e-10 0 1.5 
1.5 1.26746e-10 1.0963e-10 0 1.5 
1.5 1.10266e-11 1.00851e-11 0 1.5 
1.5 -7.86068e-09 -8.95769e-09 0 1.5 
1.5 1.45246e-09 -2.60835e-09 0 1.5 
1.5 3.1341e-09 2.05272e-09 0 1.5 
1.5 1.16498e-09 7.03974e-10 0 1.5 
1.5 -1.32573e-08 -1.50233e-08 0 1.5 
1.5 4.31247e-08 4.94463e-08 0 1.5 
1.5 6.62704e-07 7.04162e-07 0 1.5 
1.5 8.37456e-09 1.46683e-08 0 1.5 
1.5 -1.09214e-07 -1.10405e-07 0 1.5 
1.5 4.23624e-08 2.77954e-08 0 1.5 
1.5 -1.07694e-07 -1.10291e-07 0 1.5 
1.5 5.9948e-08 5.91008e-08 0 1.5 
1.5 -1.04857e-07 -1.10487e-07 0 1.5 
1.5 5.47878e-08 5.90782e-08 0 1.5 
1.5 -1.62065e-08 -1.67435e-08 0 1.5 
1.5 5.44922e-08 5.09386e-08 0 1.5 
1.5 -1.16577e-08 -9.31915e-09 0 1.5 
1.5 -1.09771e-09 -2.65123e-10 0 1.5 
1.5 -1.64909e-08 -1.66484e-08 0 1.5 
1.5 8.61315e-10 -2.26294e-10 0 1.5 
1.5 2.68846e-09 2.35279e-09 0 1.5 
1.5 1.0697e-09 1.14411e-09 0 1.5 
1.5 2.98303e-09 2.8766e-09 0 1.5 
1.5 8.01549e-10 7.38951e-10 0 1.5 
1.5 1.12497e-10 1.02307e-10 0 1.5 
1.5 9.21401e-12 8.8597e-12 0 1.5 
1.5 9.00666e-11 9.15475e-11 0 1.5 
1.5 7.13799e-10 6.26601e-10 0 1.5 
1.5 2.25957e-09 1.84681e-09 0 1.5 
1.5 5.04959e-10 5.43497e-10 0 1.5 
1.5 1.01313e-09 1.54486e-09 0 1.5 
1.5 -9.56689e-10 -6.8952e-11 0 1.5 
1.5 -3.62502e-09 -1.84711e-09 0 1.5 
1.5 -1.86141e-09 7.3813e-10 0 1.5 
1.5 1.17816e-09 5.12648e-10 0 1.5 
1.5 1.61185e-08 1.19058e-08 0 1.5 
1.5 -8.08123e-08 -1.94742e-07 0 1.5 
1.5 2.02545e-07 1.92554e-07 0 1.5 
1.5 -8.82452e-08 -6.71541e-08 0 1.5 
1.5 1.36037e-07 1.51466e-07 0 1.5 
1.5 -1.11836e-07 -9.60307e-08 0 1.5 
1.5 3.48017e-08 2.45632e-08 0 1.5 
1.5 -1.16206e-07 -1.0687e-07 0 1.5 
1.5 4.89751e-08 3.73784e-08 0 1.5 
1.5 -8.79154e-09 -5.5395e-09 0 1.5 
1.49999 -3.15368e-05 -2.8633e-05 0 1.49999 
1.5 8.53942e-06 7.05177e-06 0 1.5 
1.5 -1.51297e-06 -9.67937e-07 0 1.5 
1.5 1.17204e-05 1.10785e-05 0 1.5 
1.5 -2.96986e-06 -2.55797e-06 0 1.5 
1.5 3.78217e-07 2.31356e-07 0 1.5 
1.5 -3.44108e-06 -3.39676e-06 0 1.5 
1.5 6.80984e-07 6.02418e-07 0 1.5 
1.5 4.93532e-08 7.04031e-08 0 1.5 
1.50008 9.62285e-05 9.87916e-05 0 1.50008 
1.49992 -0.000192722 -0.000191985 0 1.49992 
1.50004 9.15812e-05 8.77859e-05 0 1.50004 
1.49994 -0.000139637 -0.000150519 0 1.49994 
1.50004 8.9033e-05 9.21204e-05 0 1.50004 
1.49999 -3.59963e-05 -3.58647e-05 0 1.49999 
1.50003 5.67097e-05 6.43863e-05 0 1.50003 
1.49999 -2.97847e-05 -3.22668e-05 0 1.49999 
1.5 1.13445e-05 1.18223e-05 0 1.5 
1.50296 0.00881394 0.0086175 0 1.50296 
1.49778 -0.00656023 -0.00723306 0 1.49778 
1.50041 0.00147843 0.00160053 0 1.50041 
1.49824 -0.00502663 -0.00554082 0 1.49824 
1.50056 0.00174028 0.00196282 0 1.50056 
1.5 -0.000130908 -0.000138428 0 1.5 
1.50059 0.00173187 0.00194042 0 1.50059 
1.49989 -0.000396893 -0.000435602 0 1.49989 
1.49998 -1.91931e-05 -3.01502e-05 0 1.49998 
1.47649 -0.0345418 -0.0820027 0 1.47649 
1.49945 -0.00250588 0.000392051 0 1.49945 
1.51028 0.0226542 0.0355589 0 1.51028 
1.51003 0.0115309 0.0384167 0 1.51003 
1.5076 0.0135703 0.026778 0 1.5076 
1.49981 -1.91449e-05 -0.00148195 0 1.49981 
1.49984 0.000904621 -0.00140178 0 1.49984 
1.4975 -0.00416118 -0.00911038 0 1.4975 
1.49926 -0.00188627 -0.00219581 0 1.49926 
1.49927 -0.00132988 -0.00242939 0 1.49927 
1.50056 0.000837146 0.00213653 0 1.50056 
1.50036 0.000901261 0.00112773 0 1.50036 
1.50034 0.000560406 0.00120058 0 1.50034 
1.49989 -0.000143567 -0.000445376 0 1.49989 
1.49988 -0.000301127 -0.00038065 0 1.49988 
1.49989 -0.000183489 -0.000395076 0 1.49989 
1.50003 3.52671e-05 0.000106514 0 1.50003 
1.50003 8.33424e-05 0.000105535 0 1.50003 
1.49983 -0.000520994 -0.000575243 0 1.49983 
1.50002 0.00010136 0.000101859 0 1.50002 
1.50001 8.07149e-06 1.55685e-05 0 1.50001 
1.50005 0.000154717 0.000167566 0 1.50005 
1.49999 -3.32578e-05 -3.08235e-05 0 1.49999 
1.5 1.24958e-06 -1.95455e-06 0 1.5 
1.49999 -4.5298e-05 -4.91143e-05 0 1.49999 
1.5 1.22775e-05 1.14717e-05 0 1.5 
1.5 -2.30783e-06 -1.36655e-06 0 1.5 
1.49999 -1.5517e-05 -1.93856e-05 0 1.49999 
1.5 7.81247e-06 9.14773e-06 0 1.5 
1.5 -2.78422e-06 -3.12082e-06 0 1.5 
1.5 2.48182e-06 4.02715e-06 0 1.5 
1.5 -1.31175e-06 -1.85282e-06 0 1.5 
1.5 3.42231e-07 4.75945e-07 0 1.5 
1.5 2.92187e-07 -1.52765e-07 0 1.5 
1.5 -9.37062e-08 4.36371e-08 0 1.5 
1.5 1.20373e-07 1.01642e-07 0 1.5 
1.5 -9.34831e-08 -1.06477e-07 0 1.5 
1.5 1.81554e-07 1.76809e-07 0 1.5 
1.5 -4.04823e-07 -3.65173e-07 0 1.5 
1.5 1.34147e-07 2.61203e-07 0 1.5 
1.5 -5.58514e-08 -1.07726e-07 0 1.5 
1.5 2.56633e-08 4.49979e-08 0 1.5 
1.5 -2.32198e-06 -4.03686e-06 0 1.5 
1.5 9.36195e-07 1.66548e-06 0 1.5 
1.5 -3.41352e-07 -6.32083e-07 0 1.5 
1.5 1.2377e-06 1.1508e-06 0 1.5 
1.5 -4.16288e-06 -4.28605e-06 0 1.5 
1.5 1.21929e-05 1.38524e-05 0 1.5 
1.49999 -1.88577e-05 -2.40236e-05 0 1.49999 
1.49999 -1.45158e-05 -3.36027e-05 0 1.49999 
1.50003 5.34793e-05 0.000108264 0 1.50003 
1.49999 -1.11345e-05 -2.9305e-05 0 1.49999 
1.5 4.32763e-06 1.47401e-05 0 1.5 
1.5 2.83617e-06 4.21637e-06 0 1.5 
1.50001 -2.99476e-06 4.99179e-05 0 1.50001 
1.5 2.98969e-06 1.30703e-05 0 1.5 
1.49999 -9.22559e-07 -4.05316e-05 0 1.49999 
1.50003 5.96928e-06 0.000123476 0 1.50003 
1.49999 -1.4416e-05 -3.06061e-05 0 1.49999 
1.49996 1.53133e-05 -0.000143603 0 1.49996 
1.49996 2.12142e-05 -0.000156364 0 1.49996 
1.49995 -5.63103e-05 -0.000197688 0 1.49995 
1.49997 1.17071e-05 -0.000137806 0 1.49997 
1.50001 -2.3781e-06 5.29421e-05 0 1.50001 
1.50001 1.21991e-05 6.48321e-05 0 1.50001 
1.50001 -5.04511e-06 4.74819e-05 0 1.50001 
1.5 1.55834e-07 -6.78312e-06 0 1.5 
1.5 4.44926e-07 1.05996e-05 0 1.5 
1.49999 -6.30333e-06 -2.68275e-05 0 1.49999 
1.50001 -1.28065e-06 2.02956e-05 0 1.50001 
1.49998 1.7231e-05 -7.7914e-05 0 1.49998 
1.50001 4.88445e-05 3.96741e-05 0 1.50001 
1.50005 -0.000288684 0.000207222 0 1.50005 
1.50008 -0.000142616 0.000271795 0 1.50008 
1.49982 0.000769106 -0.000536333 0 1.49982 
1.49946 0.0013115 -0.00210138 0 1.49946 
1.49928 0.000720259 -0.00267507 0 1.49928 
1.49903 0.00179658 -0.00391887 0 1.49903 
1.49855 -0.000615204 -0.00575792 0 1.49855 
1.49993 -6.50525e-05 -0.000315418 0 1.49993 
1.49984 -0.000613523 -0.000540154 0 1.49984 
1.49996 0.000197202 -5.67198e-05 0 1.49996 
1.50008 -2.28329e-05 0.000337032 0 1.50008 
1.50014 0.000189548 0.000522069 0 1.50014 
1.50011 -6.3898e-05 0.000392141 0 1.50011 
1.49883 -0.00126959 -0.00452882 0 1.49883 
1.4987 -0.000784716 -0.0050114 0 1.4987 
1.49846 -0.00136993 -0.00585737 0 1.49846 
1.49998 0.000310963 -8.67508e-05 0 1.49998 
1.50019 3.29684e-05 0.000716275 0 1.50019 
1.50046 0.000283787 0.00178229 0 1.50046 
1.50009 -6.74113e-05 0.000342873 0 1.50009 
1.5 3.39782e-05 -6.92885e-06 0 1.5 
1.49988 -4.36326e-05 -0.000468554 0 1.49988 
1.43556 -0.0279328 -0.241053 0 1.43556 
1.44506 -0.0318057 -0.205864 0 1.44506 
1.45702 -0.0401814 -0.15701 0 1.45702 
1.49569 -0.000523851 -0.0168359 0 1.49569 
1.50069 -0.00299178 0.00254772 0 1.50069 
1.50582 0.00088484 0.0234216 0 1.50582 
1.50618 0.00364282 0.0240547 0 1.50618 
1.50462 0.00370444 0.017878 0 1.50462 
1.50311 0.00400597 0.0114561 0 1.50311 
1.45045 0.0351741 -0.187814 0 1.45045 
1.43618 0.0240077 -0.238635 0 1.43618 
1.4316 -0.00583539 -0.25568 0 1.4316 
1.49646 -0.00364606 -0.0133448 0 1.49646 
1.4927 -0.00188677 -0.0273273 0 1.4927 
1.49073 -0.00198585 -0.0333371 0 1.49073 
1.50439 -0.00243316 0.0167582 0 1.50439 
1.5066 -0.00369549 0.0257343 0 1.5066 
1.50813 0.00167951 0.0313511 0 1.50813 
1.50215 -0.00365372 0.00827426 0 1.50215 
1.49953 -0.00251838 -0.00202545 0 1.49953 
1.50696 0.00113858 0.0248167 0 1.50696 
1.50054 -0.0029384 0.00187217 0 1.50054 
1.47159 0.0513314 -0.108328 0 1.47159 
1.48334 0.0225569 -0.0562078 0 1.48334 
1.39437 0.0396834 -0.341626 0 1.39437 
1.39681 0.106565 -0.36477 0 1.39681 
1.29782 0.107406 -0.650036 0 1.29782 
1.2822 0.0364897 -0.658854 0 1.2822 
1.19739 0.0116496 -0.863127 0 1.19739 
1.22274 0.0589974 -0.83061 0 1.22274 
1.26838 0.13566 -0.78799 0 1.26838 
1.30529 0.183893 -0.779833 0 1.30529 
1.29332 0.0807723 -0.817915 0 1.29332 
1.32007 0.17835 -0.651803 0 1.32007 
1.31699 0.130083 -0.697412 0 1.31699 
1.29766 0.0347269 -0.752475 0 1.29766 
1.38388 0.126407 -0.432253 0 1.38388 
1.3633 0.0608261 -0.508433 0 1.3633 
1.35587 0.00588074 -0.537414 0 1.35587 
1.28746 -0.0641238 -0.827915 0 1.28746 
1.29027 -0.193329 -0.790576 0 1.29027 
1.30258 -0.264695 -0.731922 0 1.30258 
1.29005 -0.0462463 -0.762327 0 1.29005 
1.29567 -0.135272 -0.732247 0 1.29567 
1.31503 -0.186225 -0.667121 0 1.31503 
1.3496 -0.0463372 -0.544664 0 1.3496 
1.35788 -0.0789488 -0.513391 0 1.35788 
1.37568 -0.108526 -0.449813 0 1.37568 
1.34273 -0.16805 -1.00288 0 1.34273 
1.30796 -0.35257 -0.930739 0 1.30796 
1.32006 -0.474348 -0.815229 0 1.32006 
1.32506 -0.0957064 -0.904268 0 1.32506 
1.31293 -0.302229 -0.847427 0 1.31293 
1.30182 -0.362086 -0.804675 0 1.30182 
1.30859 -0.0862968 -0.845075 0 1.30859 
1.30615 -0.246371 -0.799999 0 1.30615 
1.30629 -0.334 -0.748873 0 1.30629 
1.21899 0.0501561 -0.85228 0 1.21899 
1.26936 0.146897 -0.930491 0 1.26936 
1.32924 0.125705 -1.03448 0 1.32924 
1.22165 0.0320165 -0.863178 0 1.22165 
1.27277 0.123542 -0.894724 0 1.27277 
1.32221 0.122783 -0.91561 0 1.32221 
1.23419 0.0636879 -0.856126 0 1.23419 
1.28938 0.161674 -0.843431 0 1.28938 
1.31527 0.119452 -0.839499 0 1.31527 
1.19354 -0.00213323 -0.87564 0 1.19354 
1.16813 -0.0249439 -0.908418 0 1.16813 
1.17674 -0.0475732 -0.851834 0 1.17674 
1.18853 -0.0470556 -0.849861 0 1.18853 
1.19043 -0.0326216 -0.8011 0 1.19043 
1.17646 -0.0310961 -0.768603 0 1.17646 
1.15474 0.0128917 -0.641967 0 1.15474 
1.17982 0.0351904 -0.723154 0 1.17982 
1.14836 0.0949458 -0.544603 0 1.14836 
1.13081 0.0296118 -0.489951 0 1.13081 
1.07471 0.0221294 -0.314341 0 1.07471 
1.07168 0.0718387 -0.261428 0 1.07168 
1.04592 0.0834208 -0.111479 0 1.04592 
0.996984 0.026767 0.0303017 0 0.996984 
0.984422 -0.0272428 0.0554216 0 0.984422 
1.1775 0.175412 -0.621868 0 1.1775 
1.17114 0.189443 -0.577082 0 1.17114 
1.11642 0.0879774 -0.372686 0 1.11642 
1.22207 0.113031 -0.824964 0 1.22207 
1.27368 0.230388 -0.947116 0 1.27368 
1.30363 0.162607 -1.03712 0 1.30363 
0.957073 0.0504678 0.116561 0 0.957073 
1.01053 -0.0621028 -0.0364357 0 1.01053 
1.29066 -0.956037 -0.390826 0 1.29066 
1.11109 -0.0430953 -0.414034 0 1.11109 
1.27028 -0.533545 -0.799588 0 1.27028 
1.35507 -0.864298 -0.790496 0 1.35507 
1.324 -0.214672 -1.08811 0 1.324 
1.33334 -0.500815 -0.997088 0 1.33334 
1.34713 -0.670274 -0.817229 0 1.34713 
1.34818 -1.06621 -0.317122 0 1.34818 
1.32382 -0.957909 -0.199861 0 1.32382 
1.31453 -0.866212 -0.16606 0 1.31453 
1.30931 -0.801153 -0.14097 0 1.30931 
1.30556 -0.762387 -0.127298 0 1.30556 
1.31516 -0.689402 -0.078022 0 1.31516 
1.38108 -0.439118 -0.0235441 0 1.38108 
1.46966 -0.112156 -0.00831835 0 1.46966 
1.50966 0.0384417 -0.00802875 0 1.50966 
1.33451 -0.862669 -0.552937 0 1.33451 
1.3287 -0.847275 -0.368734 0 1.3287 
1.31505 -0.826166 -0.267763 0 1.31505 
1.30722 -0.78792 -0.22953 0 1.30722 
1.30456 -0.745797 -0.192665 0 1.30456 
1.32923 -0.632499 -0.152017 0 1.32923 
1.39396 -0.383976 -0.0836305 0 1.39396 
1.47434 -0.0901905 -0.0211837 0 1.47434 
1.51215 0.048086 0.00655082 0 1.51215 
1.33193 -0.701194 -0.664955 0 1.33193 
1.31695 -0.712197 -0.526696 0 1.31695 
1.30756 -0.730774 -0.408973 0 1.30756 
1.29693 -0.734501 -0.331457 0 1.29693 
1.29718 -0.700542 -0.291483 0 1.29718 
1.33735 -0.553676 -0.219778 0 1.33735 
1.41882 -0.283307 -0.105246 0 1.41882 
1.49286 -0.0256396 -0.00445577 0 1.49286 
1.51008 0.0376493 0.0137308 0 1.51008 
1.33797 -0.593108 -0.663822 0 1.33797 
1.32295 -0.617827 -0.562723 0 1.32295 
1.30837 -0.629847 -0.494454 0 1.30837 
1.29086 -0.671468 -0.418755 0 1.29086 
1.30257 -0.634398 -0.336338 0 1.30257 
1.37101 -0.426621 -0.214256 0 1.37101 
1.45682 -0.152 -0.0662953 0 1.45682 
1.50615 0.0221355 0.0119432 0 1.50615 
1.50351 0.012322 0.00548864 0 1.50351 
1.31098 -0.444466 -0.713863 0 1.31098 
1.32239 -0.523288 -0.590468 0 1.32239 
1.31319 -0.576759 -0.508183 0 1.31319 
1.2993 -0.614262 -0.443582 0 1.2993 
1.33419 -0.512444 -0.327909 0 1.33419 
1.41702 -0.264487 -0.162279 0 1.41702 
1.48929 -0.0346123 -0.0255985 0 1.48929 
1.50806 0.0283168 0.0158705 0 1.50806 
1.49879 -0.00473936 -0.00154724 0 1.49879 
1.30427 -0.352175 -0.71603 0 1.30427 
1.29873 -0.424305 -0.656681 0 1.29873 
1.29107 -0.50369 -0.583434 0 1.29107 
1.31288 -0.491903 -0.463855 0 1.31288 
1.38341 -0.322381 -0.269802 0 1.38341 
1.46768 -0.0940513 -0.0792896 0 1.46768 
1.50905 0.0322351 0.0176638 0 1.50905 
1.50148 0.003698 0.00535382 0 1.50148 
1.49876 -0.00385873 -0.00355545 0 1.49876 
1.31322 -0.315182 -0.666926 0 1.31322 
1.30777 -0.370141 -0.615071 0 1.30777 
1.32068 -0.394073 -0.511913 0 1.32068 
1.37828 -0.294121 -0.322399 0 1.37828 
1.45723 -0.114981 -0.112136 0 1.45723 
1.50726 0.0237891 0.0183978 0 1.50726 
1.50518 0.0157785 0.0145156 0 1.50518 
1.4977 -0.00752319 -0.00647428 0 1.4977 
1.50063 0.00219011 0.00183225 0 1.50063 
1.33191 -0.238392 -0.586279 0 1.33191 
1.35439 -0.273598 -0.466356 0 1.35439 
1.40048 -0.220183 -0.294208 0 1.40048 
1.46417 -0.0928378 -0.102683 0 1.46417 
1.50703 0.0170741 0.0226035 0 1.50703 
1.50653 0.0193561 0.019435 0 1.50653 
1.49753 -0.00799947 -0.00764493 0 1.49753 
1.50045 0.00171618 0.00158727 0 1.50045 
1.49997 -0.000205097 -0.0001967 0 1.49997 
1.39689 -0.134135 -0.357564 0 1.39689 
1.4323 -0.117276 -0.223044 0 1.4323 
1.47864 -0.0468673 -0.068301 0 1.47864 
1.50811 0.0188338 0.0268671 0 1.50811 
1.50519 0.015208 0.0156448 0 1.50519 
1.49758 -0.00753186 -0.00786667 0 1.49758 
1.50033 0.00133555 0.00133989 0 1.50033 
1.50008 8.81785e-05 8.03943e-05 0 1.50008 
1.49994 -0.000142586 -0.000128793 0 1.49994 
1.49985 -0.000543695 -0.000459259 0 1.49985 
1.50004 0.000139443 0.000123237 0 1.50004 
1.49999 -3.99696e-05 -3.71003e-05 0 1.49999 
1.49999 1.78761e-06 1.19682e-05 0 1.49999 
1.5 2.57026e-06 -3.86769e-06 0 1.5 
1.5 2.32291e-06 4.68836e-06 0 1.5 
1.50002 5.93193e-05 5.03735e-05 0 1.50002 
1.49999 -1.6615e-05 -1.24535e-05 0 1.49999 
1.5 2.83982e-06 1.36456e-06 0 1.5 
1.5 1.22507e-05 1.14769e-05 0 1.5 
1.5 -3.61872e-06 -3.23917e-06 0 1.5 
1.5 9.4129e-07 7.62454e-07 0 1.5 
1.5 -2.33952e-06 -2.85708e-06 0 1.5 
1.5 1.18642e-06 1.16632e-06 0 1.5 
1.5 -4.28153e-07 -3.54926e-07 0 1.5 
1.5 2.11443e-07 5.55136e-07 0 1.5 
1.5 -4.15917e-07 -4.23794e-07 0 1.5 
1.5 1.9359e-07 1.56956e-07 0 1.5 
1.5 -5.2106e-08 -3.37559e-08 0 1.5 
1.5 2.92014e-09 4.32552e-09 0 1.5 
1.5 -1.68507e-08 -7.54545e-09 0 1.5 
1.5 1.10405e-07 7.77741e-08 0 1.5 
1.5 -1.98488e-07 -1.32442e-07 0 1.5 
1.5 3.06212e-08 1.12833e-08 0 1.5 
1.5 -5.03601e-09 7.63198e-09 0 1.5 
1.5 2.09384e-07 1.35582e-07 0 1.5 
1.5 2.1775e-07 1.84561e-07 0 1.5 
1.5 -1.23984e-07 -7.30189e-08 0 1.5 
1.5 3.77776e-07 2.05399e-07 0 1.5 
1.5 -1.70854e-06 -1.14823e-06 0 1.5 
1.50003 0.00010852 5.47506e-05 0 1.50003 
1.49999 -2.81891e-05 -1.56474e-05 0 1.49999 
1.5 7.25122e-06 4.46608e-06 0 1.5 
1.50001 2.69582e-05 2.95895e-05 0 1.50001 
1.5 -4.67312e-06 -5.3427e-06 0 1.5 
1.5 2.09826e-07 3.62525e-07 0 1.5 
1.49999 -3.14036e-05 -2.81645e-05 0 1.49999 
1.5 7.34333e-06 6.52437e-06 0 1.5 
1.5 -1.45609e-06 -1.20422e-06 0 1.5 
1.49833 -0.00588357 -0.00272831 0 1.49833 
1.50048 0.00171185 0.000803059 0 1.50048 
1.49988 -0.000431575 -0.000206028 0 1.49988 
1.49993 -1.52368e-06 -0.000571026 0 1.49993 
1.5001 0.000268802 0.000350908 0 1.5001 
1.49996 -0.000105117 -0.000117581 0 1.49996 
1.50045 0.00148053 0.00127371 0 1.50045 
1.49987 -0.000445204 -0.000382433 0 1.49987 
1.50004 0.000122128 0.00010734 0 1.50004 
1.50022 0.00046676 0.00252595 0 1.50022 
1.49932 -0.00259693 -2.752e-05 0 1.49932 
1.50026 0.00103814 -0.000234867 0 1.50026 
1.49967 -0.0022701 0.00082793 0 1.49967 
1.49909 -0.00313974 -0.0009262 0 1.49909 
1.50045 0.0016396 0.000380017 0 1.50045 
1.49773 -0.0085582 -0.00383029 0 1.49773 
1.5002 0.000783359 0.000660117 0 1.5002 
1.50005 0.000171233 -6.99294e-05 0 1.50005 
1.49993 -0.000293872 0.000108757 0 1.49993 
1.50002 6.9528e-05 -3.04506e-05 0 1.50002 
1.5 -1.38778e-05 4.91286e-06 0 1.5 
1.49985 -0.000554606 -0.00011929 0 1.49985 
1.50004 0.000153077 3.19093e-05 0 1.50004 
1.49999 -3.50163e-05 -7.11468e-06 0 1.49999 
1.49997 -9.57432e-05 4.91798e-06 0 1.49997 
1.50001 2.30572e-05 -2.37211e-06 0 1.50001 
1.5 -1.96016e-06 1.8733e-06 0 1.5 
1.5 -1.08874e-06 -8.85711e-07 0 1.5 
1.5 8.35972e-07 2.28278e-07 0 1.5 
1.5 -2.72542e-07 -9.90394e-08 0 1.5 
1.5 5.93473e-06 1.16941e-06 0 1.5 
1.5 2.18934e-06 2.73716e-07 0 1.5 
1.5 -2.20821e-07 -3.39349e-07 0 1.5 
1.5 2.68876e-06 4.57092e-07 0 1.5 
1.5 -9.35771e-06 -1.91169e-06 0 1.5 
1.5 -4.52667e-06 2.85837e-06 0 1.5 
1.5 1.46587e-06 -5.48845e-07 0 1.5 
1.5 -6.88685e-07 5.11712e-07 0 1.5 
1.5 4.49906e-06 -1.76353e-06 0 1.5 
1.4999 -0.000380876 7.2007e-06 0 1.4999 
1.50003 0.000100172 -2.71062e-06 0 1.50003 
1.49999 -2.31587e-05 3.02436e-06 0 1.49999 
1.50001 4.00098e-05 -0.000103086 0 1.50001 
1.49999 -2.97029e-05 3.45493e-05 0 1.49999 
1.5 1.30946e-05 -1.04893e-05 0 1.5 
1.50006 0.000232796 2.49321e-05 0 1.50006 
1.49998 -9.05912e-05 -1.18273e-05 0 1.49998 
1.50001 3.12009e-05 5.09482e-06 0 1.50001 
1.5005 0.00115175 -0.00246129 0 1.5005 
1.49918 -0.00299224 0.000680359 0 1.49918 
1.50033 0.00124745 -9.88359e-05 0 1.50033 
1.49998 0.000277773 -0.000902781 0 1.49998 
1.49987 -0.00065746 -0.000317505 0 1.49987 
1.50001 7.15411e-05 0.000252303 0 1.50001 
1.49901 -0.00298316 0.00128191 0 1.49901 
1.50029 0.000910674 -0.000136175 0 1.50029 
1.49986 -0.000509117 -3.20643e-05 0 1.49986 
1.49964 -0.00125914 0.000404456 0 1.49964 
1.50014 0.000484746 -0.000169853 0 1.50014 
1.49996 -0.000130972 4.17309e-05 0 1.49996 
1.49804 -0.00694818 0.00352788 0 1.49804 
1.5005 0.00175884 -0.0010692 0 1.5005 
1.49988 -0.000403538 0.000286447 0 1.49988 
1.49851 -0.00611125 0.00139599 0 1.49851 
1.49982 -0.000458693 0.000382288 0 1.49982 
1.50018 0.000615487 -0.000275444 0 1.50018 
1.50001 2.91696e-05 -7.10931e-06 0 1.50001 
1.5 -5.16266e-06 5.72057e-07 0 1.5 
1.5 5.4543e-07 9.44628e-08 0 1.5 
1.50003 0.000100115 -7.67411e-05 0 1.50003 
1.49999 -2.77604e-05 2.04998e-05 0 1.49999 
1.5 7.80049e-06 -5.06673e-06 0 1.5 
1.49993 -0.000238073 9.6289e-05 0 1.49993 
1.50002 6.6135e-05 -2.37447e-05 0 1.50002 
1.5 -1.38587e-05 3.58515e-06 0 1.5 
1.5 1.65497e-06 1.65589e-07 0 1.5 
1.5 3.65978e-07 -2.22149e-07 0 1.5 
1.5 4.33782e-07 -1.38218e-07 0 1.5 
1.5 -1.95456e-06 1.03882e-06 0 1.5 
1.5 3.49045e-08 -1.79931e-08 0 1.5 
1.5 -2.48375e-08 -8.02235e-09 0 1.5 
1.5 -3.79345e-09 1.31161e-08 0 1.5 
1.5 -3.8256e-08 9.07343e-09 0 1.5 
1.5 3.6615e-08 -7.18537e-08 0 1.5 
1.5 1.33931e-09 -6.12364e-09 0 1.5 
1.5 -1.84466e-06 1.69145e-05 0 1.5 
1.5 5.03894e-07 -3.78448e-06 0 1.5 
1.5 -1.46976e-07 7.00231e-07 0 1.5 
1.5 9.00663e-08 -3.83321e-07 0 1.5 
1.5 1.85173e-07 2.19074e-06 0 1.5 
1.5 -2.69423e-06 -9.00235e-06 0 1.5 
1.5 1.94718e-05 2.96931e-05 0 1.5 
1.49997 -0.000129497 -6.80878e-05 0 1.49997 
1.5002 0.000788601 -9.0101e-06 0 1.5002 
1.5 -5.52239e-05 -0.000823254 0 1.5 
1.49999 -1.42174e-05 0.000250968 0 1.49999 
1.5 6.54528e-06 -6.80479e-05 0 1.5 
1.5078 0.0255189 -0.0143746 0 1.5078 
1.49821 -0.00640321 -0.00216594 0 1.49821 
1.50022 0.00094053 0.00211554 0 1.50022 
1.49891 -0.00393194 0.00113521 0 1.49891 
1.50391 0.0131751 -0.00579185 0 1.50391 
1.4981 -0.00320753 0.00176753 0 1.4981 
1.45585 -0.143435 0.096727 0 1.45585 
1.40088 -0.313713 0.260307 0 1.40088 
1.33855 -0.473788 0.369661 0 1.33855 
1.32146 -0.420457 0.143316 0 1.32146 
1.41994 -0.214666 0.129511 0 1.41994 
1.49834 0.000930042 0.0588212 0 1.49834 
1.15434 -0.496188 0.104995 0 1.15434 
1.18522 -0.546872 0.132707 0 1.18522 
1.24103 -0.533909 0.146968 0 1.24103 
1.27833 -0.559716 0.395264 0 1.27833 
1.24212 -0.545535 0.373554 0 1.24212 
1.21154 -0.481641 0.324648 0 1.21154 