# vtk DataFile Version 2.0
 Generated by Peano3 output component $Revision: 1.2 $ Author: Tobias Weinzierl
 ASCII
 

DATASET UNSTRUCTURED_GRID
POINTS 2500 float

0.92  0.96  0
0.96  0.96  0
0.92  1  0
0.96  1  0
0.96  0.96  0
1  0.96  0
0.96  1  0
1  1  0
0.96  0.92  0
1  0.92  0
0.96  0.96  0
1  0.96  0
0.92  0.92  0
0.96  0.92  0
0.92  0.96  0
0.96  0.96  0
0.88  0.92  0
0.92  0.92  0
0.88  0.96  0
0.92  0.96  0
0.84  0.92  0
0.88  0.92  0
0.84  0.96  0
0.88  0.96  0
0.8  0.92  0
0.84  0.92  0
0.8  0.96  0
0.84  0.96  0
0.8  0.96  0
0.84  0.96  0
0.8  1  0
0.84  1  0
0.84  0.96  0
0.88  0.96  0
0.84  1  0
0.88  1  0
0.88  0.96  0
0.92  0.96  0
0.88  1  0
0.92  1  0
0.68  0.96  0
0.72  0.96  0
0.68  1  0
0.72  1  0
0.72  0.96  0
0.76  0.96  0
0.72  1  0
0.76  1  0
0.76  0.96  0
0.8  0.96  0
0.76  1  0
0.8  1  0
0.76  0.92  0
0.8  0.92  0
0.76  0.96  0
0.8  0.96  0
0.72  0.92  0
0.76  0.92  0
0.72  0.96  0
0.76  0.96  0
0.68  0.92  0
0.72  0.92  0
0.68  0.96  0
0.72  0.96  0
0.68  0.8  0
0.72  0.8  0
0.68  0.84  0
0.72  0.84  0
0.72  0.8  0
0.76  0.8  0
0.72  0.84  0
0.76  0.84  0
0.76  0.8  0
0.8  0.8  0
0.76  0.84  0
0.8  0.84  0
0.68  0.84  0
0.72  0.84  0
0.68  0.88  0
0.72  0.88  0
0.72  0.84  0
0.76  0.84  0
0.72  0.88  0
0.76  0.88  0
0.76  0.84  0
0.8  0.84  0
0.76  0.88  0
0.8  0.88  0
0.68  0.88  0
0.72  0.88  0
0.68  0.92  0
0.72  0.92  0
0.72  0.88  0
0.76  0.88  0
0.72  0.92  0
0.76  0.92  0
0.76  0.88  0
0.8  0.88  0
0.76  0.92  0
0.8  0.92  0
0.8  0.8  0
0.84  0.8  0
0.8  0.84  0
0.84  0.84  0
0.84  0.8  0
0.88  0.8  0
0.84  0.84  0
0.88  0.84  0
0.88  0.8  0
0.92  0.8  0
0.88  0.84  0
0.92  0.84  0
0.8  0.84  0
0.84  0.84  0
0.8  0.88  0
0.84  0.88  0
0.84  0.84  0
0.88  0.84  0
0.84  0.88  0
0.88  0.88  0
0.88  0.84  0
0.92  0.84  0
0.88  0.88  0
0.92  0.88  0
0.8  0.88  0
0.84  0.88  0
0.8  0.92  0
0.84  0.92  0
0.84  0.88  0
0.88  0.88  0
0.84  0.92  0
0.88  0.92  0
0.88  0.88  0
0.92  0.88  0
0.88  0.92  0
0.92  0.92  0
0.92  0.88  0
0.96  0.88  0
0.92  0.92  0
0.96  0.92  0
0.96  0.88  0
1  0.88  0
0.96  0.92  0
1  0.92  0
0.96  0.84  0
1  0.84  0
0.96  0.88  0
1  0.88  0
0.92  0.84  0
0.96  0.84  0
0.92  0.88  0
0.96  0.88  0
0.92  0.8  0
0.96  0.8  0
0.92  0.84  0
0.96  0.84  0
0.96  0.8  0
1  0.8  0
0.96  0.84  0
1  0.84  0
0.96  0.76  0
1  0.76  0
0.96  0.8  0
1  0.8  0
0.92  0.76  0
0.96  0.76  0
0.92  0.8  0
0.96  0.8  0
0.92  0.72  0
0.96  0.72  0
0.92  0.76  0
0.96  0.76  0
0.96  0.72  0
1  0.72  0
0.96  0.76  0
1  0.76  0
0.96  0.68  0
1  0.68  0
0.96  0.72  0
1  0.72  0
0.92  0.68  0
0.96  0.68  0
0.92  0.72  0
0.96  0.72  0
0.8  0.68  0
0.84  0.68  0
0.8  0.72  0
0.84  0.72  0
0.84  0.68  0
0.88  0.68  0
0.84  0.72  0
0.88  0.72  0
0.88  0.68  0
0.92  0.68  0
0.88  0.72  0
0.92  0.72  0
0.8  0.72  0
0.84  0.72  0
0.8  0.76  0
0.84  0.76  0
0.84  0.72  0
0.88  0.72  0
0.84  0.76  0
0.88  0.76  0
0.88  0.72  0
0.92  0.72  0
0.88  0.76  0
0.92  0.76  0
0.8  0.76  0
0.84  0.76  0
0.8  0.8  0
0.84  0.8  0
0.84  0.76  0
0.88  0.76  0
0.84  0.8  0
0.88  0.8  0
0.88  0.76  0
0.92  0.76  0
0.88  0.8  0
0.92  0.8  0
0.68  0.68  0
0.72  0.68  0
0.68  0.72  0
0.72  0.72  0
0.72  0.68  0
0.76  0.68  0
0.72  0.72  0
0.76  0.72  0
0.76  0.68  0
0.8  0.68  0
0.76  0.72  0
0.8  0.72  0
0.68  0.72  0
0.72  0.72  0
0.68  0.76  0
0.72  0.76  0
0.72  0.72  0
0.76  0.72  0
0.72  0.76  0
0.76  0.76  0
0.76  0.72  0
0.8  0.72  0
0.76  0.76  0
0.8  0.76  0
0.68  0.76  0
0.72  0.76  0
0.68  0.8  0
0.72  0.8  0
0.72  0.76  0
0.76  0.76  0
0.72  0.8  0
0.76  0.8  0
0.76  0.76  0
0.8  0.76  0
0.76  0.8  0
0.8  0.8  0
0.56  0.68  0
0.6  0.68  0
0.56  0.72  0
0.6  0.72  0
0.6  0.68  0
0.64  0.68  0
0.6  0.72  0
0.64  0.72  0
0.64  0.68  0
0.68  0.68  0
0.64  0.72  0
0.68  0.72  0
0.56  0.72  0
0.6  0.72  0
0.56  0.76  0
0.6  0.76  0
0.6  0.72  0
0.64  0.72  0
0.6  0.76  0
0.64  0.76  0
0.64  0.72  0
0.68  0.72  0
0.64  0.76  0
0.68  0.76  0
0.56  0.76  0
0.6  0.76  0
0.56  0.8  0
0.6  0.8  0
0.6  0.76  0
0.64  0.76  0
0.6  0.8  0
0.64  0.8  0
0.64  0.76  0
0.68  0.76  0
0.64  0.8  0
0.68  0.8  0
0.44  0.68  0
0.48  0.68  0
0.44  0.72  0
0.48  0.72  0
0.48  0.68  0
0.52  0.68  0
0.48  0.72  0
0.52  0.72  0
0.52  0.68  0
0.56  0.68  0
0.52  0.72  0
0.56  0.72  0
0.44  0.72  0
0.48  0.72  0
0.44  0.76  0
0.48  0.76  0
0.48  0.72  0
0.52  0.72  0
0.48  0.76  0
0.52  0.76  0
0.52  0.72  0
0.56  0.72  0
0.52  0.76  0
0.56  0.76  0
0.44  0.76  0
0.48  0.76  0
0.44  0.8  0
0.48  0.8  0
0.48  0.76  0
0.52  0.76  0
0.48  0.8  0
0.52  0.8  0
0.52  0.76  0
0.56  0.76  0
0.52  0.8  0
0.56  0.8  0
0.32  0.68  0
0.36  0.68  0
0.32  0.72  0
0.36  0.72  0
0.36  0.68  0
0.4  0.68  0
0.36  0.72  0
0.4  0.72  0
0.4  0.68  0
0.44  0.68  0
0.4  0.72  0
0.44  0.72  0
0.32  0.72  0
0.36  0.72  0
0.32  0.76  0
0.36  0.76  0
0.36  0.72  0
0.4  0.72  0
0.36  0.76  0
0.4  0.76  0
0.4  0.72  0
0.44  0.72  0
0.4  0.76  0
0.44  0.76  0
0.32  0.76  0
0.36  0.76  0
0.32  0.8  0
0.36  0.8  0
0.36  0.76  0
0.4  0.76  0
0.36  0.8  0
0.4  0.8  0
0.4  0.76  0
0.44  0.76  0
0.4  0.8  0
0.44  0.8  0
0.32  0.8  0
0.36  0.8  0
0.32  0.84  0
0.36  0.84  0
0.36  0.8  0
0.4  0.8  0
0.36  0.84  0
0.4  0.84  0
0.4  0.8  0
0.44  0.8  0
0.4  0.84  0
0.44  0.84  0
0.32  0.84  0
0.36  0.84  0
0.32  0.88  0
0.36  0.88  0
0.36  0.84  0
0.4  0.84  0
0.36  0.88  0
0.4  0.88  0
0.4  0.84  0
0.44  0.84  0
0.4  0.88  0
0.44  0.88  0
0.32  0.88  0
0.36  0.88  0
0.32  0.92  0
0.36  0.92  0
0.36  0.88  0
0.4  0.88  0
0.36  0.92  0
0.4  0.92  0
0.4  0.88  0
0.44  0.88  0
0.4  0.92  0
0.44  0.92  0
0.44  0.8  0
0.48  0.8  0
0.44  0.84  0
0.48  0.84  0
0.48  0.8  0
0.52  0.8  0
0.48  0.84  0
0.52  0.84  0
0.52  0.8  0
0.56  0.8  0
0.52  0.84  0
0.56  0.84  0
0.44  0.84  0
0.48  0.84  0
0.44  0.88  0
0.48  0.88  0
0.48  0.84  0
0.52  0.84  0
0.48  0.88  0
0.52  0.88  0
0.52  0.84  0
0.56  0.84  0
0.52  0.88  0
0.56  0.88  0
0.44  0.88  0
0.48  0.88  0
0.44  0.92  0
0.48  0.92  0
0.48  0.88  0
0.52  0.88  0
0.48  0.92  0
0.52  0.92  0
0.52  0.88  0
0.56  0.88  0
0.52  0.92  0
0.56  0.92  0
0.56  0.8  0
0.6  0.8  0
0.56  0.84  0
0.6  0.84  0
0.6  0.8  0
0.64  0.8  0
0.6  0.84  0
0.64  0.84  0
0.64  0.8  0
0.68  0.8  0
0.64  0.84  0
0.68  0.84  0
0.56  0.84  0
0.6  0.84  0
0.56  0.88  0
0.6  0.88  0
0.6  0.84  0
0.64  0.84  0
0.6  0.88  0
0.64  0.88  0
0.64  0.84  0
0.68  0.84  0
0.64  0.88  0
0.68  0.88  0
0.56  0.88  0
0.6  0.88  0
0.56  0.92  0
0.6  0.92  0
0.6  0.88  0
0.64  0.88  0
0.6  0.92  0
0.64  0.92  0
0.64  0.88  0
0.68  0.88  0
0.64  0.92  0
0.68  0.92  0
0.64  0.92  0
0.68  0.92  0
0.64  0.96  0
0.68  0.96  0
0.6  0.92  0
0.64  0.92  0
0.6  0.96  0
0.64  0.96  0
0.56  0.92  0
0.6  0.92  0
0.56  0.96  0
0.6  0.96  0
0.56  0.96  0
0.6  0.96  0
0.56  1  0
0.6  1  0
0.6  0.96  0
0.64  0.96  0
0.6  1  0
0.64  1  0
0.64  0.96  0
0.68  0.96  0
0.64  1  0
0.68  1  0
0.44  0.96  0
0.48  0.96  0
0.44  1  0
0.48  1  0
0.48  0.96  0
0.52  0.96  0
0.48  1  0
0.52  1  0
0.52  0.96  0
0.56  0.96  0
0.52  1  0
0.56  1  0
0.52  0.92  0
0.56  0.92  0
0.52  0.96  0
0.56  0.96  0
0.48  0.92  0
0.52  0.92  0
0.48  0.96  0
0.52  0.96  0
0.44  0.92  0
0.48  0.92  0
0.44  0.96  0
0.48  0.96  0
0.4  0.92  0
0.44  0.92  0
0.4  0.96  0
0.44  0.96  0
0.36  0.92  0
0.4  0.92  0
0.36  0.96  0
0.4  0.96  0
0.32  0.92  0
0.36  0.92  0
0.32  0.96  0
0.36  0.96  0
0.32  0.96  0
0.36  0.96  0
0.32  1  0
0.36  1  0
0.36  0.96  0
0.4  0.96  0
0.36  1  0
0.4  1  0
0.4  0.96  0
0.44  0.96  0
0.4  1  0
0.44  1  0
0.2  0.96  0
0.24  0.96  0
0.2  1  0
0.24  1  0
0.24  0.96  0
0.28  0.96  0
0.24  1  0
0.28  1  0
0.28  0.96  0
0.32  0.96  0
0.28  1  0
0.32  1  0
0.28  0.92  0
0.32  0.92  0
0.28  0.96  0
0.32  0.96  0
0.24  0.92  0
0.28  0.92  0
0.24  0.96  0
0.28  0.96  0
0.2  0.92  0
0.24  0.92  0
0.2  0.96  0
0.24  0.96  0
0.16  0.92  0
0.2  0.92  0
0.16  0.96  0
0.2  0.96  0
0.12  0.92  0
0.16  0.92  0
0.12  0.96  0
0.16  0.96  0
0.08  0.92  0
0.12  0.92  0
0.08  0.96  0
0.12  0.96  0
0.08  0.96  0
0.12  0.96  0
0.08  1  0
0.12  1  0
0.12  0.96  0
0.16  0.96  0
0.12  1  0
0.16  1  0
0.16  0.96  0
0.2  0.96  0
0.16  1  0
0.2  1  0
-3.46945e-17  0.96  0
0.04  0.96  0
-3.46945e-17  1  0
0.04  1  0
0.04  0.96  0
0.08  0.96  0
0.04  1  0
0.08  1  0
0.04  0.92  0
0.08  0.92  0
0.04  0.96  0
0.08  0.96  0
-3.46945e-17  0.92  0
0.04  0.92  0
-3.46945e-17  0.96  0
0.04  0.96  0
-3.46945e-17  0.88  0
0.04  0.88  0
-3.46945e-17  0.92  0
0.04  0.92  0
0.04  0.88  0
0.08  0.88  0
0.04  0.92  0
0.08  0.92  0
0.04  0.84  0
0.08  0.84  0
0.04  0.88  0
0.08  0.88  0
-3.46945e-17  0.84  0
0.04  0.84  0
-3.46945e-17  0.88  0
0.04  0.88  0
-3.46945e-17  0.8  0
0.04  0.8  0
-3.46945e-17  0.84  0
0.04  0.84  0
0.04  0.8  0
0.08  0.8  0
0.04  0.84  0
0.08  0.84  0
0.08  0.8  0
0.12  0.8  0
0.08  0.84  0
0.12  0.84  0
0.12  0.8  0
0.16  0.8  0
0.12  0.84  0
0.16  0.84  0
0.16  0.8  0
0.2  0.8  0
0.16  0.84  0
0.2  0.84  0
0.08  0.84  0
0.12  0.84  0
0.08  0.88  0
0.12  0.88  0
0.12  0.84  0
0.16  0.84  0
0.12  0.88  0
0.16  0.88  0
0.16  0.84  0
0.2  0.84  0
0.16  0.88  0
0.2  0.88  0
0.08  0.88  0
0.12  0.88  0
0.08  0.92  0
0.12  0.92  0
0.12  0.88  0
0.16  0.88  0
0.12  0.92  0
0.16  0.92  0
0.16  0.88  0
0.2  0.88  0
0.16  0.92  0
0.2  0.92  0
0.2  0.8  0
0.24  0.8  0
0.2  0.84  0
0.24  0.84  0
0.24  0.8  0
0.28  0.8  0
0.24  0.84  0
0.28  0.84  0
0.28  0.8  0
0.32  0.8  0
0.28  0.84  0
0.32  0.84  0
0.2  0.84  0
0.24  0.84  0
0.2  0.88  0
0.24  0.88  0
0.24  0.84  0
0.28  0.84  0
0.24  0.88  0
0.28  0.88  0
0.28  0.84  0
0.32  0.84  0
0.28  0.88  0
0.32  0.88  0
0.2  0.88  0
0.24  0.88  0
0.2  0.92  0
0.24  0.92  0
0.24  0.88  0
0.28  0.88  0
0.24  0.92  0
0.28  0.92  0
0.28  0.88  0
0.32  0.88  0
0.28  0.92  0
0.32  0.92  0
0.2  0.68  0
0.24  0.68  0
0.2  0.72  0
0.24  0.72  0
0.24  0.68  0
0.28  0.68  0
0.24  0.72  0
0.28  0.72  0
0.28  0.68  0
0.32  0.68  0
0.28  0.72  0
0.32  0.72  0
0.2  0.72  0
0.24  0.72  0
0.2  0.76  0
0.24  0.76  0
0.24  0.72  0
0.28  0.72  0
0.24  0.76  0
0.28  0.76  0
0.28  0.72  0
[...]
CELL_DATA 625

SCALARS Q float 5
LOOKUP_TABLE default
1.5 6.35333e-16 -3.09901e-15 0 1.5 
1.5 -3.29077e-15 -2.74236e-15 0 1.5 
1.5 -2.98755e-15 6.47238e-16 0 1.5 
1.5 5.32716e-16 4.34343e-16 0 1.5 
1.5 1.48157e-15 4.10402e-16 0 1.5 
1.5 -5.99807e-15 3.60418e-16 0 1.5 
1.5 2.57329e-15 -6.38994e-17 0 1.5 
1.5 2.74071e-15 -2.53865e-15 0 1.5 
1.5 -6.18659e-15 -3.16744e-15 0 1.5 
1.5 1.74195e-15 -2.52836e-15 0 1.5 
1.5 -6.81746e-12 -7.98858e-12 0 1.5 
1.5 1.95181e-16 -2.32459e-15 0 1.5 
1.5 -1.276e-15 -2.60912e-15 0 1.5 
1.5 -9.42107e-16 3.72705e-16 0 1.5 
1.5 -7.61007e-12 -8.29927e-12 0 1.5 
1.5 -3.28374e-10 -3.9218e-10 0 1.5 
1.5 -2.31527e-07 -2.38165e-07 0 1.5 
1.5 -8.70087e-08 -8.61429e-08 0 1.5 
1.5 -7.40724e-09 -6.93716e-09 0 1.5 
1.5 -7.99906e-08 -8.53103e-08 0 1.5 
1.5 -7.1531e-09 -7.41296e-09 0 1.5 
1.5 -4.131e-10 -4.0647e-10 0 1.5 
1.5 -6.2243e-09 -7.14713e-09 0 1.5 
1.5 -3.83243e-10 -4.15764e-10 0 1.5 
1.5 -8.09051e-12 -8.23379e-12 0 1.5 
1.5 -4.11687e-10 -3.67441e-10 0 1.5 
1.5 -8.19623e-12 -7.3117e-12 0 1.5 
1.5 1.28316e-15 2.54117e-15 0 1.5 
1.5 -8.26663e-12 -7.92764e-12 0 1.5 
1.5 -6.05474e-15 -6.42248e-15 0 1.5 
1.5 1.26844e-15 -6.37823e-15 0 1.5 
1.5 2.51762e-15 1.53338e-15 0 1.5 
1.5 -6.67354e-15 1.47824e-15 0 1.5 
1.5 1.53955e-15 1.30775e-15 0 1.5 
1.5 2.95243e-16 1.82052e-15 0 1.5 
1.5 -2.48032e-15 1.5583e-15 0 1.5 
1.5 -2.87953e-15 -6.22065e-15 0 1.5 
1.5 2.6228e-16 -6.18023e-15 0 1.5 
1.5 3.21685e-17 2.38279e-15 0 1.5 
1.5 -2.57323e-15 2.37245e-15 0 1.5 
1.5 -2.32626e-15 -9.40312e-16 0 1.5 
1.5 3.06028e-16 -8.03915e-16 0 1.5 
1.5 -6.82736e-12 -5.2103e-12 0 1.5 
1.5 -2.28705e-15 -2.64282e-17 0 1.5 
1.5 -5.58446e-12 -3.87252e-12 0 1.5 
1.5 -2.5032e-10 -1.74731e-10 0 1.5 
1.5 -1.30341e-07 -1.09366e-07 0 1.5 
1.5 -5.03879e-08 -4.0217e-08 0 1.5 
1.5 -4.32132e-09 -2.94576e-09 0 1.5 
1.5 -6.9538e-08 -5.94814e-08 0 1.5 
1.5 -5.78467e-09 -4.42726e-09 0 1.5 
1.5 -3.2063e-10 -2.404e-10 0 1.5 
1.5 -6.91706e-09 -5.8512e-09 0 1.5 
1.5 -3.77642e-10 -3.06415e-10 0 1.5 
1.5 -7.7156e-12 -6.40428e-12 0 1.5 
1.5 -3.32901e-06 -2.70417e-06 0 1.5 
1.5 -3.27149e-07 -3.63418e-07 0 1.5 
1.5 4.67131e-07 3.50421e-07 0 1.5 
1.5 -5.9454e-08 -1.01567e-07 0 1.5 
1.5 5.68765e-07 4.90061e-07 0 1.5 
1.5 -1.952e-07 -1.73842e-07 0 1.5 
1.5 5.89263e-07 5.76729e-07 0 1.5 
1.5 -2.34656e-07 -2.24332e-07 0 1.5 
1.5 -8.31248e-08 -7.64415e-08 0 1.5 
1.50007 0.000185587 0.000192064 0 1.50007 
1.49998 -6.30065e-05 -6.27399e-05 0 1.49998 
1.50001 1.84341e-05 1.71395e-05 0 1.50001 
1.49998 -5.42856e-05 -5.9068e-05 0 1.49998 
1.50001 1.78407e-05 1.86372e-05 0 1.50001 
1.5 -4.06684e-06 -3.94107e-06 0 1.5 
1.50001 1.28226e-05 1.52473e-05 0 1.50001 
1.5 -3.2559e-06 -3.71988e-06 0 1.5 
1.5 -3.05661e-08 -1.53598e-08 0 1.5 
1.49965 -0.000723248 -0.000677453 0 1.49965 
1.5004 0.00103065 0.00110856 0 1.5004 
1.49982 -0.000496684 -0.000526304 0 1.49982 
1.50018 0.000385018 0.000448222 0 1.50018 
1.49987 -0.000317194 -0.000361152 0 1.49987 
1.50006 0.00014447 0.000160808 0 1.50006 
1.49995 -9.13023e-05 -0.000131044 0 1.49995 
1.50003 7.61624e-05 9.62792e-05 0 1.50003 
1.49999 -3.51496e-05 -4.29906e-05 0 1.49999 
1.51106 0.014736 0.0415514 0 1.51106 
1.50482 0.0112888 0.0157255 0 1.50482 
1.49802 -0.00580005 -0.00702543 0 1.49802 
1.49828 -0.00142068 -0.00704474 0 1.49828 
1.49802 -0.00466949 -0.00663852 0 1.49802 
1.50035 0.0012142 0.00137009 0 1.50035 
1.50014 -0.000233367 0.000760907 0 1.50014 
1.50059 0.00145744 0.00199379 0 1.50059 
1.49992 -0.000318844 -0.000324006 0 1.49992 
1.5 0.000127569 -7.8847e-05 0 1.5 
1.49984 -0.000408932 -0.000533063 0 1.49984 
1.50003 0.000110865 0.000111802 0 1.50003 
1.50001 -1.83607e-05 4.2165e-05 0 1.50001 
1.50004 0.000101868 0.000130474 0 1.50004 
1.49999 -3.78924e-05 -4.13527e-05 0 1.49999 
1.49999 -6.05208e-06 -2.50544e-05 0 1.49999 
1.49999 -1.98415e-05 -2.68375e-05 0 1.49999 
1.5 1.04216e-05 1.29165e-05 0 1.5 
1.50001 5.02568e-06 2.02893e-05 0 1.50001 
1.49999 -1.14026e-05 -1.86811e-05 0 1.49999 
1.5 5.53005e-06 8.26395e-06 0 1.5 
1.5 6.40685e-06 2.86088e-06 0 1.5 
1.5 -7.63729e-07 8.36907e-07 0 1.5 
1.5 3.25394e-07 -1.17215e-07 0 1.5 
1.5 -3.3335e-06 -3.27763e-06 0 1.5 
1.5 1.11183e-06 1.16561e-06 0 1.5 
1.5 -5.57805e-07 -6.53535e-07 0 1.5 
1.5 -1.43143e-06 -2.13788e-06 0 1.5 
1.5 -2.46539e-07 -1.99874e-07 0 1.5 
1.5 5.28161e-07 5.86779e-07 0 1.5 
1.5 -4.96203e-07 -5.00352e-07 0 1.5 
1.5 4.02701e-07 5.12303e-07 0 1.5 
1.5 -1.87579e-07 -2.07812e-07 0 1.5 
1.5 2.4506e-07 3.6645e-07 0 1.5 
1.5 -1.22852e-07 -1.45626e-07 0 1.5 
1.5 -6.4461e-08 -7.40497e-08 0 1.5 
1.5 -4.85706e-09 -6.17802e-09 0 1.5 
1.5 -4.5122e-08 -5.57327e-08 0 1.5 
1.5 -6.19101e-08 -7.73486e-08 0 1.5 
1.5 -2.8882e-08 -3.18928e-08 0 1.5 
1.5 -3.53224e-09 -4.52148e-09 0 1.5 
1.5 -2.70812e-10 -3.36607e-10 0 1.5 
1.5 -1.80349e-07 -2.24184e-07 0 1.5 
1.5 -6.53031e-09 5.15683e-08 0 1.5 
1.5 -3.2188e-08 -9.69555e-09 0 1.5 
1.5 9.67536e-08 1.93396e-07 0 1.5 
1.5 -3.95332e-07 -5.21214e-07 0 1.5 
1.5 8.41121e-07 1.17311e-06 0 1.5 
1.5 -2.06635e-06 -2.998e-06 0 1.5 
1.5 2.19299e-06 3.81446e-06 0 1.5 
1.5 4.70092e-06 9.97925e-06 0 1.5 
1.5 -1.34614e-06 -3.11288e-06 0 1.5 
1.5 -4.52485e-08 3.31361e-08 0 1.5 
1.5 1.36985e-07 4.18471e-07 0 1.5 
1.5 6.73862e-07 7.98912e-06 0 1.5 
1.5 9.64412e-07 5.24901e-06 0 1.5 
1.5 1.35484e-06 -2.46983e-08 0 1.5 
1.5 -8.46148e-06 -8.88594e-06 0 1.5 
1.5 -4.57738e-06 -1.49984e-05 0 1.5 
1.5 -4.62857e-06 -1.75015e-05 0 1.5 
1.49999 1.41935e-06 -3.0952e-05 0 1.49999 
1.49999 -2.37823e-06 -2.56978e-05 0 1.49999 
1.5 1.09486e-05 -4.03349e-06 0 1.5 
1.5 -1.74751e-06 5.41471e-06 0 1.5 
1.5 9.24725e-07 1.00752e-05 0 1.5 
1.5 -3.95278e-07 1.07129e-05 0 1.5 
1.5 -6.88808e-07 5.52829e-08 0 1.5 
1.5 -2.27343e-07 1.25979e-06 0 1.5 
1.5 -4.20455e-08 -1.9913e-06 0 1.5 
1.5 5.20587e-06 -2.21465e-06 0 1.5 
1.5 -2.37712e-05 9.22407e-06 0 1.5 
1.5 4.47357e-06 6.06318e-06 0 1.5 
1.49998 -1.33691e-05 -4.67668e-05 0 1.49998 
1.49999 9.09887e-05 -2.89355e-05 0 1.49999 
1.50002 -0.000328262 5.02513e-05 0 1.50002 
1.50011 -2.28068e-05 0.000344034 0 1.50011 
1.49999 -0.000478236 1.58282e-05 0 1.49999 
1.50023 -0.000258038 0.000931277 0 1.50023 
1.50038 9.91132e-05 0.00144251 0 1.50038 
1.50003 0.000144605 9.07552e-05 0 1.50003 
1.49996 5.25704e-05 -0.000179546 0 1.49996 
1.49992 -1.9762e-05 -0.000313114 0 1.49992 
1.49999 -4.29035e-05 -1.89025e-05 0 1.49999 
1.50002 -3.13702e-06 6.34378e-05 0 1.50002 
1.50002 4.62325e-07 9.32553e-05 0 1.50002 
1.50019 0.000307304 0.000779904 0 1.50019 
1.50022 0.000250361 0.000901032 0 1.50022 
1.50034 0.000427449 0.00119075 0 1.50034 
1.49997 -8.43631e-05 -0.000122276 0 1.49997 
1.49995 -5.62581e-05 -0.000185425 0 1.49995 
1.49991 -0.000120478 -0.000299719 0 1.49991 
1.50001 2.16795e-05 3.93947e-05 0 1.50001 
1.50001 1.5601e-05 4.86219e-05 0 1.50001 
1.50002 3.40001e-05 6.20253e-05 0 1.50002 
1.4932 0.00105744 -0.0268272 0 1.4932 
1.49949 -0.00627984 -0.00227111 0 1.49949 
1.50679 0.000958442 0.0278609 0 1.50679 
1.50596 0.00259383 0.0235546 0 1.50596 
1.504 0.00466463 0.0156692 0 1.504 
1.50195 0.00393293 0.00640005 0 1.50195 
1.49871 -0.00103 -0.00516586 0 1.49871 
1.49888 -0.00119912 -0.00440765 0 1.49888 
1.49893 -0.00148622 -0.00377358 0 1.49893 
1.4955 0.00179716 -0.0180141 0 1.4955 
1.4902 -0.00725927 -0.0367372 0 1.4902 
1.48946 0.000943594 -0.0381096 0 1.48946 
1.5037 -0.00448456 0.0146758 0 1.5037 
1.50687 -0.000952693 0.0267045 0 1.50687 
1.50816 0.000561423 0.0309644 0 1.50816 
1.49942 0.00159891 -0.00236538 0 1.49942 
1.49853 0.000790382 -0.00579099 0 1.49853 
1.49803 -0.000308275 -0.00748408 0 1.49803 
1.49943 0.000379425 -0.00196648 0 1.49943 
1.50004 0.00110023 0.000182292 0 1.50004 
1.49924 -0.00277631 -0.00279872 0 1.49924 
1.5021 -0.00134376 0.00745215 0 1.5021 
1.49938 -0.00580968 -0.00137972 0 1.49938 
1.50556 4.42768e-05 0.0190243 0 1.50556 
1.48668 0.0347857 -0.0414406 0 1.48668 
1.46641 0.0635919 -0.126773 0 1.46641 
1.38973 0.161484 -0.391266 0 1.38973 
1.38682 0.0561082 -0.349698 0 1.38682 
1.2594 0.0562016 -0.681913 0 1.2594 
1.28784 0.168785 -0.680027 0 1.28784 
1.31239 0.251154 -0.699252 0 1.31239 
1.29435 0.143011 -0.773541 0 1.29435 
1.2806 0.036528 -0.821543 0 1.2806 
1.3651 0.144223 -0.500209 0 1.3651 
1.33986 0.0827232 -0.588781 0 1.33986 
1.33132 0.00512573 -0.619117 0 1.33132 
1.44134 0.0400539 -0.221512 0 1.44134 
1.42506 0.0321351 -0.279968 0 1.42506 
1.41587 -0.00790347 -0.309532 0 1.41587 
1.2674 -0.0678084 -0.828813 0 1.2674 
1.27944 -0.152366 -0.794335 0 1.27944 
1.30026 -0.219736 -0.727656 0 1.30026 
1.32541 -0.0561951 -0.625369 0 1.32541 
1.33638 -0.0865562 -0.589217 0 1.33638 
1.35375 -0.13681 -0.521908 0 1.35375 
1.42466 -0.031234 -0.282648 0 1.42466 
1.43457 -0.0410943 -0.244789 0 1.43457 
1.44855 -0.0543165 -0.185495 0 1.44855 
1.26707 -0.124735 -0.949022 0 1.26707 
1.31557 -0.396312 -0.952902 0 1.31557 
1.30126 -0.464328 -0.867846 0 1.30126 
1.28649 -0.125222 -0.917036 0 1.28649 
1.29469 -0.282307 -0.884679 0 1.29469 
1.30658 -0.39953 -0.804941 0 1.30658 
1.27118 -0.0815525 -0.878752 0 1.27118 
1.28294 -0.224237 -0.829958 0 1.28294 
1.30017 -0.303656 -0.767127 0 1.30017 
1.25083 0.219281 -0.870353 0 1.25083 
1.29202 0.29758 -0.947428 0 1.29202 
1.26957 0.124072 -0.906885 0 1.26957 
1.25205 0.178253 -0.865527 0 1.25205 
1.30307 0.291326 -0.895256 0 1.30307 
1.29351 0.118911 -0.943118 0 1.29351 
1.27873 0.241676 -0.808186 0 1.27873 
1.29978 0.231227 -0.834086 0 1.29978 
1.27991 0.0708399 -0.878162 0 1.27991 
1.21715 0.104241 -0.826543 0 1.21715 
1.17542 0.0460731 -0.846772 0 1.17542 
1.14692 0.00936585 -0.819969 0 1.14692 
1.1996 0.0637516 -0.843776 0 1.1996 
1.18443 0.0885964 -0.758779 0 1.18443 
1.1439 0.0254333 -0.706311 0 1.1439 
1.13523 0.053679 -0.557356 0 1.13523 
1.16214 0.155466 -0.614866 0 1.16214 
1.09238 0.120018 -0.317922 0 1.09238 
1.098 0.0328123 -0.361063 0 1.098 
1.02742 0.0161852 -0.0752881 0 1.02742 
1.00983 0.00870226 -0.0223568 0 1.00983 
0.997975 0.000476928 0.000848752 0 0.997975 
0.99787 -0.00412894 0.00568277 0 0.99787 
0.997732 0.0024298 0.00314244 0 0.997732 
1.04778 0.0929866 -0.136438 0 1.04778 
1.00225 0.0284384 0.00629381 0 1.00225 
0.984715 -0.0086197 0.0470638 0 0.984715 
1.19763 0.258264 -0.666333 0 1.19763 
1.17205 0.188594 -0.548144 0 1.17205 
1.1173 0.0513056 -0.388729 0 1.1173 
1.00532 -0.012416 -0.00884369 0 1.00532 
0.988939 0.0265315 0.0100429 0 0.988939 
0.996196 -0.00630681 0.0234309 0 0.996196 
0.985837 -0.00480796 0.053625 0 0.985837 
0.966905 0.0730036 0.0668884 0 0.966905 
1.14197 -0.407562 -0.321756 0 1.14197 
1.1039 -0.0134485 -0.362512 0 1.1039 
1.20688 -0.281858 -0.68244 0 1.20688 
1.2931 -0.575673 -0.832906 0 1.2931 
1.23627 -0.819581 -0.244924 0 1.23627 
1.31599 -0.993237 -0.241223 0 1.31599 
1.30894 -0.903507 -0.16785 0 1.30894 
1.30281 -0.815941 -0.156712 0 1.30281 
1.29461 -0.767214 -0.0827579 0 1.29461 
1.35413 -0.525148 -0.0243858 0 1.35413 
1.46146 -0.139109 -0.0209344 0 1.46146 
1.51065 0.0424565 -0.012662 0 1.51065 
1.49925 -0.00370429 0.00615844 0 1.49925 
1.30117 -0.894482 -0.508671 0 1.30117 
1.28429 -0.842711 -0.411717 0 1.28429 
1.28902 -0.829494 -0.317579 0 1.28902 
1.29249 -0.796103 -0.249602 0 1.29249 
1.30573 -0.707227 -0.21139 0 1.30573 
1.36922 -0.459422 -0.120983 0 1.36922 
1.47009 -0.104031 -0.0232232 0 1.47009 
1.51441 0.0563529 0.0116272 0 1.51441 
1.49772 -0.00969622 -0.00230989 0 1.49772 
1.32087 -0.763302 -0.655887 0 1.32087 
1.30087 -0.779988 -0.482067 0 1.30087 
1.2806 -0.745592 -0.410472 0 1.2806 
1.27655 -0.732868 -0.371218 0 1.27655 
1.31616 -0.609192 -0.272512 0 1.31616 
1.41024 -0.315305 -0.122664 0 1.41024 
1.49352 -0.0246834 0.00103313 0 1.49352 
1.50872 0.0323612 0.0109962 0 1.50872 
1.49758 -0.00883726 -0.00357678 0 1.49758 
1.29187 -0.54916 -0.727202 0 1.29187 
1.31107 -0.653429 -0.564971 0 1.31107 
1.29526 -0.69633 -0.450006 0 1.29526 
1.29375 -0.667329 -0.375072 0 1.29375 
1.35933 -0.460895 -0.245152 0 1.35933 
1.45453 -0.157026 -0.0789644 0 1.45453 
1.50666 0.0243934 0.00996531 0 1.50666 
1.50158 0.00496423 0.00445157 0 1.50158 
1.49914 -0.00284215 -0.00223013 0 1.49914 
1.29286 -0.43858 -0.729751 0 1.29286 
1.28107 -0.508289 -0.657876 0 1.28107 
1.27543 -0.596858 -0.566722 0 1.27543 
1.31145 -0.530802 -0.409441 0 1.31145 
1.41086 -0.264277 -0.196153 0 1.41086 
1.49391 -0.0145514 -0.0240609 0 1.49391 
1.50663 0.02189 0.0178257 0 1.50663 
1.49827 -0.00610571 -0.00460675 0 1.49827 
1.50038 0.00140069 0.00106521 0 1.50038 
1.30263 -0.391505 -0.695754 0 1.30263 
1.28832 -0.455462 -0.634232 0 1.28832 
1.30593 -0.450852 -0.51074 0 1.30593 
1.3873 -0.289279 -0.279245 0 1.3873 
1.48079 -0.0505817 -0.0519216 0 1.48079 
1.51103 0.0369152 0.0287753 0 1.51103 
1.49857 -0.00591279 -0.00388238 0 1.49857 
1.49998 0.000353239 3.81657e-05 0 1.49998 
1.50006 9.05376e-05 0.00010507 0 1.50006 
1.31106 -0.297438 -0.641638 0 1.31106 
1.33684 -0.338388 -0.492131 0 1.33684 
1.40221 -0.235332 -0.275869 0 1.40221 
1.4797 -0.0607594 -0.0535718 0 1.4797 
1.51171 0.0351779 0.0361287 0 1.51171 
1.50016 -0.000914502 -0.000792168 0 1.50016 
1.49912 -0.00224722 -0.00207483 0 1.49912 
1.50038 0.0010487 0.000920903 0 1.50038 
1.49989 -0.000322546 -0.000264661 0 1.49989 
1.3799 -0.176543 -0.404549 0 1.3799 
1.4289 -0.133561 -0.227966 0 1.4289 
1.48733 -0.0331691 -0.0385455 0 1.48733 
1.50986 0.0281176 0.0320726 0 1.50986 
1.50026 -0.000173604 -0.000656054 0 1.50026 
1.49878 -0.0031741 -0.00316372 0 1.49878 
1.50055 0.00154996 0.00150363 0 1.50055 
1.49981 -0.000534322 -0.000497665 0 1.49981 
1.50005 0.000158656 0.000138512 0 1.50005 
1.47511 -0.0396791 -0.0846937 0 1.47511 
1.50397 0.00482839 0.0165908 0 1.50397 
1.50925 0.0248418 0.0305597 0 1.50925 
1.49936 -0.00234026 -0.00330418 0 1.49936 
1.49908 -0.00231852 -0.00235761 0 1.49908 
1.50054 0.00148981 0.00153161 0 1.50054 
1.4998 -0.000576695 -0.000578562 0 1.4998 
1.50007 0.000193553 0.000186779 0 1.50007 
1.49998 -5.8458e-05 -5.27829e-05 0 1.49998 
1.50003 7.67831e-05 5.53837e-05 0 1.50003 
1.5 -1.18056e-05 -5.77704e-06 0 1.5 
1.5 -6.04387e-07 -1.4659e-06 0 1.5 
1.49999 -3.91951e-05 -3.05817e-05 0 1.49999 
1.5 6.25803e-06 3.7745e-06 0 1.5 
1.5 4.59242e-07 6.90402e-07 0 1.5 
1.5 1.40168e-05 1.13087e-05 0 1.5 
1.5 -1.43644e-06 -7.78931e-07 0 1.5 
1.5 -6.02347e-07 -5.55667e-07 0 1.5 
1.5 1.2382e-06 1.01914e-06 0 1.5 
1.5 -4.24759e-07 -3.02166e-07 0 1.5 
1.5 2.60978e-08 -8.70058e-09 0 1.5 
1.5 -6.43654e-07 -5.17276e-07 0 1.5 
1.5 1.42881e-07 6.61292e-08 0 1.5 
1.5 -2.24867e-08 -1.82735e-08 0 1.5 
1.5 3.08522e-07 1.95096e-07 0 1.5 
1.5 -6.64108e-08 -5.35785e-08 0 1.5 
1.5 -3.06197e-08 -2.29005e-08 0 1.5 
1.5 -2.95148e-09 -1.86335e-09 0 1.5 
1.5 -1.74042e-10 -1.17119e-10 0 1.5 
1.5 -1.61882e-09 -1.10891e-09 0 1.5 
1.5 -1.44129e-08 -1.02889e-08 0 1.5 
1.5 -3.44098e-09 -5.66219e-09 0 1.5 
1.5 -4.4676e-09 -3.54787e-09 0 1.5 
1.5 3.26608e-10 -3.591e-09 0 1.5 
1.5 -1.57122e-08 -2.19274e-08 0 1.5 
1.5 -1.94065e-08 -1.51242e-08 0 1.5 
1.5 -1.58867e-08 -1.49041e-08 0 1.5 
1.5 7.45263e-09 -7.23791e-09 0 1.5 
1.5 -1.20842e-08 -4.66825e-08 0 1.5 
1.5 -7.09985e-06 -6.00053e-06 0 1.5 
1.5 6.6043e-07 2.84622e-07 0 1.5 
1.5 8.30014e-09 9.18857e-08 0 1.5 
1.5 5.46826e-06 4.57803e-06 0 1.5 
1.5 -1.16536e-06 -7.9102e-07 0 1.5 
1.5 2.10048e-07 7.5054e-08 0 1.5 
1.5 -2.58161e-06 -2.19941e-06 0 1.5 
1.5 8.10925e-07 5.26209e-07 0 1.5 
1.5 -1.53206e-07 -9.61963e-08 0 1.5 
1.50026 0.000859711 0.000697748 0 1.50026 
1.49994 -0.000210609 -0.000181158 0 1.49994 
1.50001 4.39094e-05 3.91156e-05 0 1.50001 
1.49991 -0.000328918 -0.000274286 0 1.49991 
1.50002 8.55986e-05 7.83102e-05 0 1.50002 
1.49999 -2.26361e-05 -2.0953e-05 0 1.49999 
1.49998 -2.30393e-05 -1.16514e-05 0 1.49998 
1.5 -4.71779e-06 -9.57841e-06 0 1.5 
1.5 5.63445e-06 6.22973e-06 0 1.5 
1.49985 -0.000340384 -0.00186492 0 1.49985 
1.50007 0.000189446 0.000533039 0 1.50007 
1.49999 -2.54836e-05 -0.000157855 0 1.49999 
1.50016 0.000973986 0.000425062 0 1.50016 
1.5 -8.25437e-05 -0.000106646 0 1.5 
1.50001 6.16437e-05 3.69965e-05 0 1.50001 
1.50054 0.00194848 0.000905692 0 1.50054 
1.49987 -0.000451291 -0.000226025 0 1.49987 
1.50003 0.000122014 6.05538e-05 0 1.50003 
1.5 -5.31651e-06 4.42859e-05 0 1.5 
1.5 4.13495e-06 -1.02314e-05 0 1.5 
1.5 -1.29399e-06 1.63208e-06 0 1.5 
1.49999 -4.05699e-05 -1.21502e-05 0 1.49999 
1.5 1.63233e-05 3.13211e-06 0 1.5 
1.5 -4.40245e-06 -5.81302e-07 0 1.5 
1.49999 -3.42165e-05 -1.60238e-05 0 1.49999 
1.5 8.49951e-06 3.66943e-06 0 1.5 
1.5 -1.60337e-06 -6.35206e-07 0 1.5 
1.5 1.62906e-07 2.02201e-08 0 1.5 
1.5 1.58407e-08 -2.95373e-09 0 1.5 
1.5 -7.20854e-08 -1.42984e-08 0 1.5 
1.5 7.85271e-07 3.78907e-08 0 1.5 
1.5 2.68083e-07 -1.24692e-07 0 1.5 
1.5 -3.17515e-08 -3.5073e-08 0 1.5 
1.5 2.11718e-07 5.04767e-08 0 1.5 
1.5 -7.62059e-07 -3.3959e-07 0 1.5 
1.5 -3.15115e-07 4.50857e-07 0 1.5 
1.5 1.36983e-07 -9.09677e-08 0 1.5 
1.5 -8.50213e-08 2.37602e-08 0 1.5 
1.5 4.4852e-07 -1.08736e-07 0 1.5 
1.5 1.73449e-08 -3.12746e-05 0 1.5 
1.5 4.33405e-06 5.69409e-06 0 1.5 
1.5 -1.77784e-06 -4.69689e-07 0 1.5 
1.49999 -3.12927e-05 2.74713e-06 0 1.49999 
1.5 5.94461e-06 2.76966e-06 0 1.5 
1.5 -1.65546e-07 -1.59291e-06 0 1.5 
1.49999 -4.6218e-05 -1.27556e-05 0 1.49999 
1.5 5.01968e-06 6.64542e-07 0 1.5 
1.5 1.23826e-06 7.26698e-07 0 1.5 
1.49978 -0.00045311 0.0014105 0 1.49978 
1.5001 0.000286179 -0.00044995 0 1.5001 
1.49998 -5.69649e-05 0.000128163 0 1.49998 
1.50005 7.42124e-05 0.000102981 0 1.50005 
1.49994 -0.00020228 9.89567e-05 0 1.49994 
1.50003 0.00010206 -3.49401e-05 0 1.50003 
1.5004 0.00108199 0.000181886 0 1.5004 
1.49981 -0.000588928 -0.000161666 0 1.49981 
1.50006 0.000201234 5.87006e-05 0 1.50006 
1.50004 0.000149987 -0.000181072 0 1.50004 
1.49999 -4.50769e-05 5.05689e-05 0 1.49999 
1.5 1.36776e-05 -1.31323e-05 0 1.5 
1.50029 0.000950584 -0.000304861 0 1.50029 
1.49994 -0.000199526 5.74638e-05 0 1.49994 
1.50001 3.15859e-05 -5.90935e-06 0 1.50001 
1.50046 0.00178601 -0.00124105 0 1.50046 
1.4999 -0.000392452 0.000350756 0 1.4999 
1.50003 0.000120375 -0.000103321 0 1.50003 
1.5 -4.3605e-06 3.07553e-06 0 1.5 
1.5 1.09868e-06 -4.67883e-07 0 1.5 
1.5 -1.04315e-07 2.67338e-08 0 1.5 
1.5 -1.79326e-06 -7.08329e-07 0 1.5 
1.5 -7.83425e-07 5.3898e-07 0 1.5 
1.5 2.44938e-07 -7.34311e-08 0 1.5 
1.49999 -4.12462e-05 2.77722e-05 0 1.49999 
1.5 1.22979e-05 -5.79766e-06 0 1.5 
1.5 -2.74248e-06 7.52082e-07 0 1.5 
1.5 3.6682e-07 -1.6191e-08 0 1.5 
1.5 1.22065e-08 -3.50091e-08 0 1.5 
1.5 -2.39962e-08 -6.69595e-09 0 1.5 
1.5 -1.62735e-09 -2.06061e-08 0 1.5 
1.5 -3.86694e-08 1.62103e-08 0 1.5 
1.5 2.26438e-08 -2.05519e-08 0 1.5 
1.5 -6.10583e-10 -9.1389e-09 0 1.5 
1.5 4.70214e-08 -3.70541e-08 0 1.5 
1.5 1.55576e-08 1.35926e-08 0 1.5 
1.5 1.08035e-08 -4.27141e-09 0 1.5 
1.5 -1.15193e-06 2.30092e-06 0 1.5 
1.5 2.22912e-07 -2.49716e-07 0 1.5 
1.5 2.70957e-09 -3.13144e-08 0 1.5 
1.5 8.49813e-08 2.65212e-08 0 1.5 
1.5 -8.46734e-07 4.89905e-07 0 1.5 
1.5 3.29703e-06 -3.00586e-06 0 1.5 
1.5 -1.1023e-05 1.31582e-05 0 1.5 
1.50001 3.93977e-05 -4.92713e-05 0 1.50001 
1.49995 -0.000165769 0.000181122 0 1.49995 
1.50001 5.34152e-05 -0.000103379 0 1.50001 
1.5 -1.19466e-05 3.32841e-05 0 1.5 
1.5 3.29004e-06 -9.94924e-06 0 1.5 
1.49856 -0.00465075 0.00660864 0 1.49856 
1.50035 0.00119223 -0.00145177 0 1.50035 
1.49993 -0.000257068 0.000350573 0 1.49993 
1.50021 0.000718778 -0.000692187 0 1.50021 
1.49917 -0.00271587 0.00259077 0 1.49917 
1.50226 0.00647823 -0.00763254 0 1.50226 
1.50288 0.0144145 0.0014077 0 1.50288 
1.45239 -0.135766 0.107573 0 1.45239 
1.38683 -0.307938 0.296381 0 1.38683 
1.4463 -0.143348 0.15567 0 1.4463 
1.50872 0.0303615 0.0244662 0 1.50872 
1.50395 0.011468 -0.0248073 0 1.50395 
1.21626 -0.41516 0.209319 0 1.21626 
1.27285 -0.420353 0.225883 0 1.27285 
1.35161 -0.331136 0.215181 0 1.35161 
1.33487 -0.420084 0.467876 0 1.33487 
1.28597 -0.464232 0.560158 0 1.28597 
1.2593 -0.406197 0.561557 0 1.2593 
1.30316 -0.453382 0.738961 0 1.30316 
1.29424 -0.558662 0.63293 0 1.29424 
1.30248 -0.588149 0.489098 0 1.30248 
1.30775 -0.591259 0.718583 0 1.30775 
1.29489 -0.677893 0.558357 0 1.29489 