# vtk DataFile Version 2.0
 Generated by Peano3 output component $Revision: 1.2 $ Author: Tobias Weinzierl
 ASCII
 

DATASET UNSTRUCTURED_GRID
POINTS 2500 float

0.92  0.96  0
0.96  0.96  0
0.92  1  0
0.96  1  0
0.96  0.96  0
1  0.96  0
0.96  1  0
1  1  0
0.96  0.92  0
1  0.92  0
0.96  0.96  0
1  0.96  0
0.92  0.92  0
0.96  0.92  0
0.92  0.96  0
0.96  0.96  0
0.88  0.92  0
0.92  0.92  0
0.88  0.96  0
0.92  0.96  0
0.84  0.92  0
0.88  0.92  0
0.84  0.96  0
0.88  0.96  0
0.8  0.92  0
0.84  0.92  0
0.8  0.96  0
0.84  0.96  0
0.8  0.96  0
0.84  0.96  0
0.8  1  0
0.84  1  0
0.84  0.96  0
0.88  0.96  0
0.84  1  0
0.88  1  0
0.88  0.96  0
0.92  0.96  0
0.88  1  0
0.92  1  0
0.68  0.96  0
0.72  0.96  0
0.68  1  0
0.72  1  0
0.72  0.96  0
0.76  0.96  0
0.72  1  0
0.76  1  0
0.76  0.96  0
0.8  0.96  0
0.76  1  0
0.8  1  0
0.76  0.92  0
0.8  0.92  0
0.76  0.96  0
0.8  0.96  0
0.72  0.92  0
0.76  0.92  0
0.72  0.96  0
0.76  0.96  0
0.68  0.92  0
0.72  0.92  0
0.68  0.96  0
0.72  0.96  0
0.68  0.8  0
0.72  0.8  0
0.68  0.84  0
0.72  0.84  0
0.72  0.8  0
0.76  0.8  0
0.72  0.84  0
0.76  0.84  0
0.76  0.8  0
0.8  0.8  0
0.76  0.84  0
0.8  0.84  0
0.68  0.84  0
0.72  0.84  0
0.68  0.88  0
0.72  0.88  0
0.72  0.84  0
0.76  0.84  0
0.72  0.88  0
0.76  0.88  0
0.76  0.84  0
0.8  0.84  0
0.76  0.88  0
0.8  0.88  0
0.68  0.88  0
0.72  0.88  0
0.68  0.92  0
0.72  0.92  0
0.72  0.88  0
0.76  0.88  0
0.72  0.92  0
0.76  0.92  0
0.76  0.88  0
0.8  0.88  0
0.76  0.92  0
0.8  0.92  0
0.8  0.8  0
0.84  0.8  0
0.8  0.84  0
0.84  0.84  0
0.84  0.8  0
0.88  0.8  0
0.84  0.84  0
0.88  0.84  0
0.88  0.8  0
0.92  0.8  0
0.88  0.84  0
0.92  0.84  0
0.8  0.84  0
0.84  0.84  0
0.8  0.88  0
0.84  0.88  0
0.84  0.84  0
0.88  0.84  0
0.84  0.88  0
0.88  0.88  0
0.88  0.84  0
0.92  0.84  0
0.88  0.88  0
0.92  0.88  0
0.8  0.88  0
0.84  0.88  0
0.8  0.92  0
0.84  0.92  0
0.84  0.88  0
0.88  0.88  0
0.84  0.92  0
0.88  0.92  0
0.88  0.88  0
0.92  0.88  0
0.88  0.92  0
0.92  0.92  0
0.92  0.88  0
0.96  0.88  0
0.92  0.92  0
0.96  0.92  0
0.96  0.88  0
1  0.88  0
0.96  0.92  0
1  0.92  0
0.96  0.84  0
1  0.84  0
0.96  0.88  0
1  0.88  0
0.92  0.84  0
0.96  0.84  0
0.92  0.88  0
0.96  0.88  0
0.92  0.8  0
0.96  0.8  0
0.92  0.84  0
0.96  0.84  0
0.96  0.8  0
1  0.8  0
0.96  0.84  0
1  0.84  0
0.96  0.76  0
1  0.76  0
0.96  0.8  0
1  0.8  0
0.92  0.76  0
0.96  0.76  0
0.92  0.8  0
0.96  0.8  0
0.92  0.72  0
0.96  0.72  0
0.92  0.76  0
0.96  0.76  0
0.96  0.72  0
1  0.72  0
0.96  0.76  0
1  0.76  0
0.96  0.68  0
1  0.68  0
0.96  0.72  0
1  0.72  0
0.92  0.68  0
0.96  0.68  0
0.92  0.72  0
0.96  0.72  0
0.8  0.68  0
0.84  0.68  0
0.8  0.72  0
0.84  0.72  0
0.84  0.68  0
0.88  0.68  0
0.84  0.72  0
0.88  0.72  0
0.88  0.68  0
0.92  0.68  0
0.88  0.72  0
0.92  0.72  0
0.8  0.72  0
0.84  0.72  0
0.8  0.76  0
0.84  0.76  0
0.84  0.72  0
0.88  0.72  0
0.84  0.76  0
0.88  0.76  0
0.88  0.72  0
0.92  0.72  0
0.88  0.76  0
0.92  0.76  0
0.8  0.76  0
0.84  0.76  0
0.8  0.8  0
0.84  0.8  0
0.84  0.76  0
0.88  0.76  0
0.84  0.8  0
0.88  0.8  0
0.88  0.76  0
0.92  0.76  0
0.88  0.8  0
0.92  0.8  0
0.68  0.68  0
0.72  0.68  0
0.68  0.72  0
0.72  0.72  0
0.72  0.68  0
0.76  0.68  0
0.72  0.72  0
0.76  0.72  0
0.76  0.68  0
0.8  0.68  0
0.76  0.72  0
0.8  0.72  0
0.68  0.72  0
0.72  0.72  0
0.68  0.76  0
0.72  0.76  0
0.72  0.72  0
0.76  0.72  0
0.72  0.76  0
0.76  0.76  0
0.76  0.72  0
0.8  0.72  0
0.76  0.76  0
0.8  0.76  0
0.68  0.76  0
0.72  0.76  0
0.68  0.8  0
0.72  0.8  0
0.72  0.76  0
0.76  0.76  0
0.72  0.8  0
0.76  0.8  0
0.76  0.76  0
0.8  0.76  0
0.76  0.8  0
0.8  0.8  0
0.56  0.68  0
0.6  0.68  0
0.56  0.72  0
0.6  0.72  0
0.6  0.68  0
0.64  0.68  0
0.6  0.72  0
0.64  0.72  0
0.64  0.68  0
0.68  0.68  0
0.64  0.72  0
0.68  0.72  0
0.56  0.72  0
0.6  0.72  0
0.56  0.76  0
0.6  0.76  0
0.6  0.72  0
0.64  0.72  0
0.6  0.76  0
0.64  0.76  0
0.64  0.72  0
0.68  0.72  0
0.64  0.76  0
0.68  0.76  0
0.56  0.76  0
0.6  0.76  0
0.56  0.8  0
0.6  0.8  0
0.6  0.76  0
0.64  0.76  0
0.6  0.8  0
0.64  0.8  0
0.64  0.76  0
0.68  0.76  0
0.64  0.8  0
0.68  0.8  0
0.44  0.68  0
0.48  0.68  0
0.44  0.72  0
0.48  0.72  0
0.48  0.68  0
0.52  0.68  0
0.48  0.72  0
0.52  0.72  0
0.52  0.68  0
0.56  0.68  0
0.52  0.72  0
0.56  0.72  0
0.44  0.72  0
0.48  0.72  0
0.44  0.76  0
0.48  0.76  0
0.48  0.72  0
0.52  0.72  0
0.48  0.76  0
0.52  0.76  0
0.52  0.72  0
0.56  0.72  0
0.52  0.76  0
0.56  0.76  0
0.44  0.76  0
0.48  0.76  0
0.44  0.8  0
0.48  0.8  0
0.48  0.76  0
0.52  0.76  0
0.48  0.8  0
0.52  0.8  0
0.52  0.76  0
0.56  0.76  0
0.52  0.8  0
0.56  0.8  0
0.32  0.68  0
0.36  0.68  0
0.32  0.72  0
0.36  0.72  0
0.36  0.68  0
0.4  0.68  0
0.36  0.72  0
0.4  0.72  0
0.4  0.68  0
0.44  0.68  0
0.4  0.72  0
0.44  0.72  0
0.32  0.72  0
0.36  0.72  0
0.32  0.76  0
0.36  0.76  0
0.36  0.72  0
0.4  0.72  0
0.36  0.76  0
0.4  0.76  0
0.4  0.72  0
0.44  0.72  0
0.4  0.76  0
0.44  0.76  0
0.32  0.76  0
0.36  0.76  0
0.32  0.8  0
0.36  0.8  0
0.36  0.76  0
0.4  0.76  0
0.36  0.8  0
0.4  0.8  0
0.4  0.76  0
0.44  0.76  0
0.4  0.8  0
0.44  0.8  0
0.32  0.8  0
0.36  0.8  0
0.32  0.84  0
0.36  0.84  0
0.36  0.8  0
0.4  0.8  0
0.36  0.84  0
0.4  0.84  0
0.4  0.8  0
0.44  0.8  0
0.4  0.84  0
0.44  0.84  0
0.32  0.84  0
0.36  0.84  0
0.32  0.88  0
0.36  0.88  0
0.36  0.84  0
0.4  0.84  0
0.36  0.88  0
0.4  0.88  0
0.4  0.84  0
0.44  0.84  0
0.4  0.88  0
0.44  0.88  0
0.32  0.88  0
0.36  0.88  0
0.32  0.92  0
0.36  0.92  0
0.36  0.88  0
0.4  0.88  0
0.36  0.92  0
0.4  0.92  0
0.4  0.88  0
0.44  0.88  0
0.4  0.92  0
0.44  0.92  0
0.44  0.8  0
0.48  0.8  0
0.44  0.84  0
0.48  0.84  0
0.48  0.8  0
0.52  0.8  0
0.48  0.84  0
0.52  0.84  0
0.52  0.8  0
0.56  0.8  0
0.52  0.84  0
0.56  0.84  0
0.44  0.84  0
0.48  0.84  0
0.44  0.88  0
0.48  0.88  0
0.48  0.84  0
0.52  0.84  0
0.48  0.88  0
0.52  0.88  0
0.52  0.84  0
0.56  0.84  0
0.52  0.88  0
0.56  0.88  0
0.44  0.88  0
0.48  0.88  0
0.44  0.92  0
0.48  0.92  0
0.48  0.88  0
0.52  0.88  0
0.48  0.92  0
0.52  0.92  0
0.52  0.88  0
0.56  0.88  0
0.52  0.92  0
0.56  0.92  0
0.56  0.8  0
0.6  0.8  0
0.56  0.84  0
0.6  0.84  0
0.6  0.8  0
0.64  0.8  0
0.6  0.84  0
0.64  0.84  0
0.64  0.8  0
0.68  0.8  0
0.64  0.84  0
0.68  0.84  0
0.56  0.84  0
0.6  0.84  0
0.56  0.88  0
0.6  0.88  0
0.6  0.84  0
0.64  0.84  0
0.6  0.88  0
0.64  0.88  0
0.64  0.84  0
0.68  0.84  0
0.64  0.88  0
0.68  0.88  0
0.56  0.88  0
0.6  0.88  0
0.56  0.92  0
0.6  0.92  0
0.6  0.88  0
0.64  0.88  0
0.6  0.92  0
0.64  0.92  0
0.64  0.88  0
0.68  0.88  0
0.64  0.92  0
0.68  0.92  0
0.64  0.92  0
0.68  0.92  0
0.64  0.96  0
0.68  0.96  0
0.6  0.92  0
0.64  0.92  0
0.6  0.96  0
0.64  0.96  0
0.56  0.92  0
0.6  0.92  0
0.56  0.96  0
0.6  0.96  0
0.56  0.96  0
0.6  0.96  0
0.56  1  0
0.6  1  0
0.6  0.96  0
0.64  0.96  0
0.6  1  0
0.64  1  0
0.64  0.96  0
0.68  0.96  0
0.64  1  0
0.68  1  0
0.44  0.96  0
0.48  0.96  0
0.44  1  0
0.48  1  0
0.48  0.96  0
0.52  0.96  0
0.48  1  0
0.52  1  0
0.52  0.96  0
0.56  0.96  0
0.52  1  0
0.56  1  0
0.52  0.92  0
0.56  0.92  0
0.52  0.96  0
0.56  0.96  0
0.48  0.92  0
0.52  0.92  0
0.48  0.96  0
0.52  0.96  0
0.44  0.92  0
0.48  0.92  0
0.44  0.96  0
0.48  0.96  0
0.4  0.92  0
0.44  0.92  0
0.4  0.96  0
0.44  0.96  0
0.36  0.92  0
0.4  0.92  0
0.36  0.96  0
0.4  0.96  0
0.32  0.92  0
0.36  0.92  0
0.32  0.96  0
0.36  0.96  0
0.32  0.96  0
0.36  0.96  0
0.32  1  0
0.36  1  0
0.36  0.96  0
0.4  0.96  0
0.36  1  0
0.4  1  0
0.4  0.96  0
0.44  0.96  0
0.4  1  0
0.44  1  0
0.2  0.96  0
0.24  0.96  0
0.2  1  0
0.24  1  0
0.24  0.96  0
0.28  0.96  0
0.24  1  0
0.28  1  0
0.28  0.96  0
0.32  0.96  0
0.28  1  0
0.32  1  0
0.28  0.92  0
0.32  0.92  0
0.28  0.96  0
0.32  0.96  0
0.24  0.92  0
0.28  0.92  0
0.24  0.96  0
0.28  0.96  0
0.2  0.92  0
0.24  0.92  0
0.2  0.96  0
0.24  0.96  0
0.16  0.92  0
0.2  0.92  0
0.16  0.96  0
0.2  0.96  0
0.12  0.92  0
0.16  0.92  0
0.12  0.96  0
0.16  0.96  0
0.08  0.92  0
0.12  0.92  0
0.08  0.96  0
0.12  0.96  0
0.08  0.96  0
0.12  0.96  0
0.08  1  0
0.12  1  0
0.12  0.96  0
0.16  0.96  0
0.12  1  0
0.16  1  0
0.16  0.96  0
0.2  0.96  0
0.16  1  0
0.2  1  0
-3.46945e-17  0.96  0
0.04  0.96  0
-3.46945e-17  1  0
0.04  1  0
0.04  0.96  0
0.08  0.96  0
0.04  1  0
0.08  1  0
0.04  0.92  0
0.08  0.92  0
0.04  0.96  0
0.08  0.96  0
-3.46945e-17  0.92  0
0.04  0.92  0
-3.46945e-17  0.96  0
0.04  0.96  0
-3.46945e-17  0.88  0
0.04  0.88  0
-3.46945e-17  0.92  0
0.04  0.92  0
0.04  0.88  0
0.08  0.88  0
0.04  0.92  0
0.08  0.92  0
0.04  0.84  0
0.08  0.84  0
0.04  0.88  0
0.08  0.88  0
-3.46945e-17  0.84  0
0.04  0.84  0
-3.46945e-17  0.88  0
0.04  0.88  0
-3.46945e-17  0.8  0
0.04  0.8  0
-3.46945e-17  0.84  0
0.04  0.84  0
0.04  0.8  0
0.08  0.8  0
0.04  0.84  0
0.08  0.84  0
0.08  0.8  0
0.12  0.8  0
0.08  0.84  0
0.12  0.84  0
0.12  0.8  0
0.16  0.8  0
0.12  0.84  0
0.16  0.84  0
0.16  0.8  0
0.2  0.8  0
0.16  0.84  0
0.2  0.84  0
0.08  0.84  0
0.12  0.84  0
0.08  0.88  0
0.12  0.88  0
0.12  0.84  0
0.16  0.84  0
0.12  0.88  0
0.16  0.88  0
0.16  0.84  0
0.2  0.84  0
0.16  0.88  0
0.2  0.88  0
0.08  0.88  0
0.12  0.88  0
0.08  0.92  0
0.12  0.92  0
0.12  0.88  0
0.16  0.88  0
0.12  0.92  0
0.16  0.92  0
0.16  0.88  0
0.2  0.88  0
0.16  0.92  0
0.2  0.92  0
0.2  0.8  0
0.24  0.8  0
0.2  0.84  0
0.24  0.84  0
0.24  0.8  0
0.28  0.8  0
0.24  0.84  0
0.28  0.84  0
0.28  0.8  0
0.32  0.8  0
0.28  0.84  0
0.32  0.84  0
0.2  0.84  0
0.24  0.84  0
0.2  0.88  0
0.24  0.88  0
0.24  0.84  0
0.28  0.84  0
0.24  0.88  0
0.28  0.88  0
0.28  0.84  0
0.32  0.84  0
0.28  0.88  0
0.32  0.88  0
0.2  0.88  0
0.24  0.88  0
0.2  0.92  0
0.24  0.92  0
0.24  0.88  0
0.28  0.88  0
0.24  0.92  0
0.28  0.92  0
0.28  0.88  0
0.32  0.88  0
0.28  0.92  0
0.32  0.92  0
0.2  0.68  0
0.24  0.68  0
0.2  0.72  0
0.24  0.72  0
0.24  0.68  0
0.28  0.68  0
0.24  0.72  0
0.28  0.72  0
0.28  0.68  0
0.32  0.68  0
0.28  0.72  0
0.32  0.72  0
0.2  0.72  0
0.24  0.72  0
0.2  0.76  0
0.24  0.76  0
0.24  0.72  0
0.28  0.72  0
0.24  0.76  0
0.28  0.76  0
0.28  0.72  0
[...]
CELL_DATA 625

SCALARS Q float 5
LOOKUP_TABLE default
1.5 -2.32914e-07 -5.21922e-07 0 1.5 
1.5 1.31328e-07 1.39337e-07 0 1.5 
1.5 -4.32466e-07 -2.07422e-07 0 1.5 
1.5 6.53231e-07 6.81203e-07 0 1.5 
1.5 -6.01684e-07 -8.8986e-07 0 1.5 
1.5 -2.46407e-06 -1.80154e-06 0 1.5 
1.50001 1.7886e-05 1.729e-05 0 1.50001 
1.5 -2.92514e-06 -2.45327e-06 0 1.5 
1.5 -7.22619e-08 -1.4261e-06 0 1.5 
1.5 3.77351e-07 1.13506e-06 0 1.5 
1.50002 5.60619e-05 0.000162307 0 1.50002 
1.49999 -4.11967e-05 -8.48477e-05 0 1.49999 
1.5 1.46499e-05 2.36144e-05 0 1.5 
1.49998 -6.43617e-05 -6.72116e-05 0 1.49998 
1.50005 0.000138947 0.000154014 0 1.50005 
1.49997 -8.36557e-05 -0.000106561 0 1.49997 
1.49882 -0.00351993 -0.00363933 0 1.49882 
1.50067 0.00208284 0.00207314 0 1.50067 
1.49992 -0.000299503 -0.000266173 0 1.49992 
1.50068 0.00201174 0.00217228 0 1.50068 
1.49992 -0.000279237 -0.000298302 0 1.49992 
1.49993 -0.000213587 -0.000215425 0 1.49993 
1.49988 -0.000367683 -0.000431746 0 1.49988 
1.49994 -0.00018475 -0.000184265 0 1.49994 
1.50005 0.000162593 0.000164423 0 1.50005 
1.49994 -0.000174168 -0.00018111 0 1.49994 
1.50005 0.000141273 0.000137717 0 1.50005 
1.49998 -6.08681e-05 -5.74452e-05 0 1.49998 
1.50005 0.000162019 0.000160353 0 1.50005 
1.49998 -6.52033e-05 -6.31437e-05 0 1.49998 
1.50001 1.89263e-05 1.79483e-05 0 1.50001 
1.49998 -6.60712e-05 -6.55763e-05 0 1.49998 
1.5 1.77089e-05 1.71046e-05 0 1.5 
1.5 -2.73971e-06 -2.52628e-06 0 1.5 
1.5 -3.35562e-07 -2.39747e-07 0 1.5 
1.5 6.23835e-07 2.10018e-07 0 1.5 
1.5 4.83797e-07 5.17589e-07 0 1.5 
1.5 -4.03865e-06 -3.82619e-06 0 1.5 
1.50001 2.02933e-05 1.81854e-05 0 1.50001 
1.5 -6.90715e-06 -3.81095e-06 0 1.5 
1.5 2.41521e-05 1.13142e-05 0 1.5 
1.49999 -5.03486e-05 -4.39593e-05 0 1.49999 
1.50001 3.84364e-05 3.65661e-05 0 1.50001 
1.49999 -3.8564e-05 -1.49648e-05 0 1.49999 
1.49999 -2.59673e-05 -1.52275e-05 0 1.49999 
1.50005 0.000160255 0.000108805 0 1.50005 
1.49974 -0.000742774 -0.000930043 0 1.49974 
1.50041 0.00133045 0.00109825 0 1.50041 
1.49983 -0.000589023 -0.000438963 0 1.49983 
1.50058 0.00189194 0.00161161 0 1.50058 
1.49984 -0.000573484 -0.000435525 0 1.49984 
1.50001 6.06866e-05 2.31902e-05 0 1.50001 
1.49988 -0.000425764 -0.000337905 0 1.49988 
1.49997 -7.25629e-05 -9.15692e-05 0 1.49997 
1.50003 9.78808e-05 9.56644e-05 0 1.50003 
1.50691 0.0209877 0.0159412 0 1.50691 
1.50518 0.0162959 0.0131962 0 1.50518 
1.49815 -0.00610795 -0.00419365 0 1.49815 
1.50665 0.0196913 0.018266 0 1.50665 
1.49857 -0.00445683 -0.0034398 0 1.49857 
1.49918 -0.00252296 -0.00243225 0 1.49918 
1.49876 -0.00348767 -0.00329301 0 1.49876 
1.49886 -0.00348592 -0.00343694 0 1.49886 
1.50065 0.00207811 0.00189932 0 1.50065 
1.40032 -0.256103 -0.26862 0 1.40032 
1.44359 -0.151827 -0.146502 0 1.44359 
1.48389 -0.0441737 -0.0409863 0 1.48389 
1.44506 -0.134163 -0.154899 0 1.44506 
1.48271 -0.043819 -0.0473626 0 1.48271 
1.50637 0.0176446 0.0163408 0 1.50637 
1.48719 -0.0307012 -0.0369481 0 1.48719 
1.50724 0.0178734 0.02077 0 1.50724 
1.50697 0.0192587 0.0204783 0 1.50697 
1.34601 -0.311067 -0.505276 0 1.34601 
1.35073 -0.329865 -0.457091 0 1.35073 
1.36655 -0.320846 -0.378969 0 1.36655 
1.35973 -0.255643 -0.460238 0 1.35973 
1.37745 -0.253121 -0.379858 0 1.37745 
1.40672 -0.212578 -0.274393 0 1.40672 
1.39912 -0.179289 -0.334091 0 1.39912 
1.42372 -0.154241 -0.240591 0 1.42372 
1.45532 -0.0995754 -0.134259 0 1.45532 
1.3389 -0.215065 -0.611844 0 1.3389 
1.33721 -0.266559 -0.583919 0 1.33721 
1.34101 -0.294127 -0.545493 0 1.34101 
1.3341 -0.193735 -0.603647 0 1.3341 
1.33829 -0.225781 -0.568533 0 1.33829 
1.34745 -0.244832 -0.5205 0 1.34745 
1.35501 -0.158213 -0.522732 0 1.35501 
1.36569 -0.177161 -0.472623 0 1.36569 
1.38063 -0.18296 -0.410366 0 1.38063 
1.39306 -0.107427 -0.387278 0 1.39306 
1.40836 -0.114839 -0.327036 0 1.40836 
1.42631 -0.110602 -0.256945 0 1.42631 
1.44091 -0.054555 -0.215145 0 1.44091 
1.45524 -0.0516492 -0.161384 0 1.45524 
1.47086 -0.0419094 -0.102139 0 1.47086 
1.48532 -0.0126418 -0.055265 0 1.48532 
1.49372 -0.00656933 -0.0221674 0 1.49372 
1.50165 0.00199984 0.00802115 0 1.50165 
1.44667 -0.0944941 -0.178049 0 1.44667 
1.471 -0.0590267 -0.0919472 0 1.471 
1.49499 -0.0121096 -0.0147897 0 1.49499 
1.48768 -0.0219363 -0.0411384 0 1.48768 
1.50267 0.00442399 0.00944086 0 1.50267 
1.50874 0.0186078 0.0285933 0 1.50874 
1.50738 0.012225 0.0270306 0 1.50738 
1.50699 0.0138849 0.0236511 0 1.50699 
1.50129 0.00356594 0.00386706 0 1.50129 
1.50855 0.0192797 0.0264842 0 1.50855 
1.50602 0.0156926 0.0186284 0 1.50602 
1.49851 -0.00379201 -0.00448375 0 1.49851 
1.50391 0.00994693 0.0124859 0 1.50391 
1.49804 -0.0046575 -0.0063247 0 1.49804 
1.49907 -0.00272297 -0.00287532 0 1.49907 
1.49783 -0.00499256 -0.00712424 0 1.49783 
1.49957 -0.00136111 -0.001254 0 1.49957 
1.50065 0.0018217 0.00206981 0 1.50065 
1.49982 -0.000507562 -0.000570649 0 1.49982 
1.5005 0.00137887 0.00164652 0 1.5005 
1.50019 0.000221074 0.000402373 0 1.50019 
1.50011 0.000337446 0.00135316 0 1.50011 
1.49985 -0.000406994 -0.0008226 0 1.49985 
1.50002 6.41388e-05 -2.94525e-06 0 1.50002 
1.49832 -0.00288 -0.00807803 0 1.49832 
1.49972 -0.000727265 -0.00452842 0 1.49972 
1.50052 0.00111667 0.00188242 0 1.50052 
1.49817 -0.00416236 -0.00574791 0 1.49817 
1.49877 -0.00199532 -0.00331863 0 1.49877 
1.50322 0.00584074 0.0102213 0 1.50322 
1.50723 0.00989538 0.0227957 0 1.50723 
1.50818 0.00831382 0.0275316 0 1.50818 
1.5071 0.00581173 0.0261892 0 1.5071 
1.50157 0.00155449 0.0190976 0 1.50157 
1.49962 -2.20022e-05 0.0100893 0 1.49962 
1.49822 -0.00222582 -0.00113368 0 1.49822 
1.50624 0.00240078 0.0254263 0 1.50624 
1.50533 0.0031289 0.0273116 0 1.50533 
1.50363 0.00278325 0.0254767 0 1.50363 
1.50453 0.00244709 0.0196479 0 1.50453 
1.50121 -0.000915875 0.0106171 0 1.50121 
1.49848 -0.00255529 0.00244275 0 1.49848 
1.49642 -0.0037942 -0.0041694 0 1.49642 
1.49646 -0.00184743 -0.00437891 0 1.49646 
1.49992 0.00192426 0.00516852 0 1.49992 
1.50431 -0.00396716 0.0173055 0 1.50431 
1.50582 -0.00158523 0.018739 0 1.50582 
1.50648 0.00109667 0.0223401 0 1.50648 
1.50158 -0.001265 0.0182856 0 1.50158 
1.50265 -0.00365615 0.0181033 0 1.50265 
1.50481 0.002627 0.0190538 0 1.50481 
1.50794 0.000644276 0.0284685 0 1.50794 
1.48278 0.00729998 -0.0642161 0 1.48278 
1.48004 0.0176849 -0.0759938 0 1.48004 
1.42805 0.0259385 -0.259364 0 1.42805 
1.4266 0.0107757 -0.25881 0 1.4266 
1.35865 0.00654564 -0.482237 0 1.35865 
1.36411 0.0188545 -0.473554 0 1.36411 
1.37035 0.028691 -0.464026 0 1.37035 
1.37543 0.0351371 -0.460054 0 1.37543 
1.37735 0.0233917 -0.464622 0 1.37735 
1.42961 0.0317752 -0.262675 0 1.42961 
1.42864 0.0282733 -0.273366 0 1.42864 
1.42402 0.00979506 -0.290281 0 1.42402 
1.47628 0.0192617 -0.0935933 0 1.47628 
1.4715 0.0102624 -0.113078 0 1.4715 
1.46746 -0.00291985 -0.126513 0 1.46746 
1.37461 -0.0134567 -0.472879 0 1.37461 
1.37414 -0.0567268 -0.466275 0 1.37414 
1.38138 -0.0868808 -0.435224 0 1.38138 
1.42051 -0.0171018 -0.298308 0 1.42051 
1.42288 -0.0362365 -0.286285 0 1.42288 
1.42998 -0.048355 -0.257493 0 1.42998 
1.4675 -0.0114595 -0.12523 0 1.4675 
1.4713 -0.0150379 -0.110352 0 1.4713 
1.47729 -0.0163399 -0.0864632 0 1.47729 
1.3347 -0.0978055 -0.656296 0 1.3347 
1.35289 -0.0817474 -0.620444 0 1.35289 
1.3496 -0.132275 -0.615853 0 1.3496 
1.34081 -0.0388597 -0.63109 0 1.34081 
1.34714 -0.0764177 -0.613006 0 1.34714 
1.33789 -0.143266 -0.617305 0 1.33789 
1.34528 -0.0113875 -0.594298 0 1.34528 
1.34499 -0.0725125 -0.586435 0 1.34499 
1.34736 -0.126835 -0.56271 0 1.34736 
1.2387 -0.0895661 -0.86406 0 1.2387 
1.26829 -0.114224 -0.8014 0 1.26829 
1.30293 -0.12192 -0.723836 0 1.30293 
1.26338 -0.0281516 -0.789375 0 1.26338 
1.28665 -0.0321641 -0.741897 0 1.28665 
1.3153 -0.0325148 -0.683223 0 1.3153 
1.31071 0.0105225 -0.650927 0 1.31071 
1.32378 0.0182953 -0.627904 0 1.32378 
1.33793 0.0171067 -0.605806 0 1.33793 
1.30035 6.85636e-05 -0.670473 0 1.30035 
1.29294 -0.00243421 -0.68426 0 1.29294 
1.24102 -0.0131701 -0.837981 0 1.24102 
1.24798 -0.0266196 -0.821387 0 1.24798 
1.22059 -0.0583285 -0.901974 0 1.22059 
1.21662 -0.0205061 -0.915367 0 1.21662 
1.2247 -0.0229509 -0.908896 0 1.2247 
1.227 -0.08424 -0.902581 0 1.227 
1.25036 -0.103351 -0.868097 0 1.25036 
1.24281 -0.0279653 -0.876872 0 1.24281 
1.25441 -0.0407841 -0.866345 0 1.25441 
1.26754 -0.130835 -0.851462 0 1.26754 
1.27377 -0.205462 -0.840662 0 1.27377 
1.27068 -0.261558 -0.833792 0 1.27068 
1.28329 -0.330254 -0.794601 0 1.28329 
1.25895 -0.194213 -0.852655 0 1.25895 
1.2634 -0.24708 -0.837117 0 1.2634 
1.2737 -0.25971 -0.806379 0 1.2737 
1.23988 -0.154125 -0.877055 0 1.23988 
1.26283 -0.201795 -0.826888 0 1.26283 
1.28604 -0.203279 -0.772425 0 1.28604 
1.31073 -0.357499 -0.732347 0 1.31073 
1.33965 -0.320944 -0.67194 0 1.33965 
1.37144 -0.266009 -0.61037 0 1.37144 
1.30455 -0.26398 -0.739577 0 1.30455 
1.34537 -0.237641 -0.65532 0 1.34537 
1.37645 -0.198831 -0.589046 0 1.37645 
1.3127 -0.169817 -0.715322 0 1.3127 
1.3482 -0.138035 -0.643973 0 1.3482 
1.37052 -0.147143 -0.587821 0 1.37052 
1.35267 -0.631529 -0.669874 0 1.35267 
1.38726 -0.600284 -0.556488 0 1.38726 
1.41851 -0.511706 -0.481678 0 1.41851 
1.33702 -0.500105 -0.67949 0 1.33702 
1.36484 -0.495854 -0.609544 0 1.36484 
1.39557 -0.438058 -0.547017 0 1.39557 
1.31584 -0.432046 -0.724105 0 1.31584 
1.34374 -0.405821 -0.659837 0 1.34374 
1.38028 -0.351104 -0.58831 0 1.38028 
1.28585 -0.300235 -0.911766 0 1.28585 
1.28565 -0.393631 -0.936904 0 1.28565 
1.31364 -0.552315 -0.830783 0 1.31364 
1.28927 -0.261197 -0.855443 0 1.28927 
1.31805 -0.376364 -0.787475 0 1.31805 
1.32624 -0.446225 -0.735866 0 1.32624 
1.28117 -0.210391 -0.84221 0 1.28117 
1.29078 -0.298581 -0.815682 0 1.29078 
1.30337 -0.403 -0.770923 0 1.30337 
1.27669 -0.154858 -0.853231 0 1.27669 
1.2641 -0.0584414 -0.868427 0 1.2641 
1.26525 -0.07618 -0.896387 0 1.26525 
1.27173 -0.170427 -0.888337 0 1.27173 
1.27963 -0.199361 -0.894514 0 1.27963 
1.27485 -0.0744521 -0.899058 0 1.27485 
1.35223 -0.0828917 -0.678514 0 1.35223 
1.35734 -0.185356 -0.686695 0 1.35734 
1.50303 -0.36359 -0.268493 0 1.50303 
1.44435 -0.0529701 -0.339741 0 1.44435 
1.48041 -0.0018055 -0.123035 0 1.48041 
1.64315 -0.782378 0.0248492 0 1.64315 
1.70398 -1.14804 0.116373 0 1.70398 
1.61426 -0.926668 0.0746475 0 1.61426 
1.56848 -0.793413 0.0498141 0 1.56848 
1.67525 -0.970961 0.20611 0 1.67525 
1.70381 -1.00461 0.39712 0 1.70381 
1.65269 -0.829051 0.348505 0 1.65269 
1.41733 -0.400389 -0.576637 0 1.41733 
1.52786 -0.740808 -0.192962 0 1.52786 
1.55642 -0.798909 -0.0149694 0 1.55642 
1.57168 -0.638318 0.0455864 0 1.57168 
1.59146 -0.473817 0.0591051 0 1.59146 
1.59982 -0.34295 0.0238373 0 1.59982 
1.62255 -0.666756 0.278443 0 1.62255 
1.59566 -0.546684 0.143345 0 1.59566 
1.55833 -0.470098 -0.0380658 0 1.55833 
1.5165 -0.744671 -0.115141 0 1.5165 
1.47967 -0.660411 -0.257095 0 1.47967 
1.47024 -0.562065 -0.32146 0 1.47024 
1.56349 -0.370203 -0.0619775 0 1.56349 
1.50063 -0.495915 -0.0809354 0 1.50063 
1.45517 -0.556315 -0.0619964 0 1.45517 
1.42341 -0.570122 -0.0917828 0 1.42341 
1.39541 -0.595765 -0.105305 0 1.39541 
1.37672 -0.609385 -0.0829492 0 1.37672 
1.36281 -0.615084 -0.0569862 0 1.36281 
1.35003 -0.620515 -0.0507659 0 1.35003 
1.3416 -0.615701 -0.0583165 0 1.3416 
1.52466 -0.440477 -0.164458 0 1.52466 
1.48421 -0.479676 -0.189814 0 1.48421 
1.43206 -0.568742 -0.19713 0 1.43206 
1.40644 -0.587183 -0.193716 0 1.40644 
1.39465 -0.578743 -0.170837 0 1.39465 
1.37995 -0.585321 -0.142849 0 1.37995 
1.36343 -0.599531 -0.12234 0 1.36343 
1.34506 -0.62114 -0.114549 0 1.34506 
1.33761 -0.614393 -0.111845 0 1.33761 
1.47344 -0.467685 -0.324181 0 1.47344 
1.45323 -0.469465 -0.319526 0 1.45323 
1.41694 -0.540971 -0.29136 0 1.41694 
1.39934 -0.559496 -0.254865 0 1.39934 
1.39104 -0.550201 -0.230773 0 1.39104 
1.37654 -0.5618 -0.208826 0 1.37654 
1.3586 -0.585255 -0.190058 0 1.3586 
1.34032 -0.612543 -0.177453 0 1.34032 
1.33786 -0.596962 -0.157142 0 1.33786 
1.43822 -0.433169 -0.436573 0 1.43822 
1.43394 -0.428819 -0.395117 0 1.43394 
1.40638 -0.499546 -0.353395 0 1.40638 
1.38837 -0.532783 -0.317897 0 1.38837 
1.38135 -0.527678 -0.294634 0 1.38135 
1.36925 -0.539651 -0.272592 0 1.36925 
1.35319 -0.567396 -0.248796 0 1.35319 
1.33926 -0.591956 -0.223966 0 1.33926 
1.34333 -0.563699 -0.190158 0 1.34333 
1.41935 -0.37307 -0.491196 0 1.41935 
1.4161 -0.388427 -0.44719 0 1.4161 
1.39055 -0.468932 -0.412062 0 1.39055 
1.37624 -0.50361 -0.378428 0 1.37624 
1.37228 -0.500369 -0.348508 0 1.37228 
1.36448 -0.512372 -0.318484 0 1.36448 
1.35141 -0.542169 -0.2873 0 1.35141 
1.34019 -0.564538 -0.259216 0 1.34019 
1.35074 -0.518668 -0.218846 0 1.35074 
1.4047 -0.312016 -0.528416 0 1.4047 
1.39874 -0.354606 -0.485478 0 1.39874 
1.37696 -0.436573 -0.453923 0 1.37696 
1.36837 -0.465491 -0.418171 0 1.36837 
1.36706 -0.466474 -0.382919 0 1.36706 
1.36123 -0.481472 -0.35061 0 1.36123 
1.34666 -0.519036 -0.325981 0 1.34666 
1.3397 -0.530843 -0.297207 0 1.3397 
1.36165 -0.456377 -0.240118 0 1.36165 
1.39041 -0.255961 -0.553833 0 1.39041 
1.37937 -0.329453 -0.520066 0 1.37937 
1.36299 -0.404068 -0.49227 0 1.36299 
1.35956 -0.426233 -0.455273 0 1.35956 
1.3599 -0.431063 -0.419441 0 1.3599 
1.35231 -0.456238 -0.392599 0 1.35231 
1.33881 -0.49566 -0.36898 0 1.33881 
1.34629 -0.475176 -0.318451 0 1.34629 
1.38321 -0.368061 -0.230204 0 1.38321 
1.37935 -0.227074 -0.5584 0 1.37935 
1.36171 -0.314206 -0.546524 0 1.36171 
1.3521 -0.368761 -0.520326 0 1.3521 
1.35278 -0.385435 -0.482735 0 1.35278 
1.35299 -0.398461 -0.449477 0 1.35299 
1.34378 -0.434693 -0.423956 0 1.34378 
1.34253 -0.45072 -0.380512 0 1.34253 
1.36927 -0.385995 -0.294472 0 1.36927 
1.41514 -0.259721 -0.183163 0 1.41514 
1.36316 -0.222964 -0.570965 0 1.36316 
1.35053 -0.29801 -0.558377 0 1.35053 
1.34804 -0.333405 -0.527862 0 1.34804 
1.3501 -0.34917 -0.493704 0 1.3501 
1.34802 -0.371607 -0.464233 0 1.34802 
1.34613 -0.397321 -0.424614 0 1.34613 
1.36434 -0.368246 -0.345241 0 1.36434 
1.40388 -0.273234 -0.233157 0 1.40388 
1.45051 -0.145469 -0.115917 0 1.45051 
1.43318 -0.215859 -0.12711 0 1.43318 
1.47995 -0.0663625 -0.0368492 0 1.47995 
1.50648 0.022011 0.0120924 0 1.50648 
1.46348 -0.114985 -0.075908 0 1.46348 
1.49918 -0.00260931 -0.00153871 0 1.49918 
1.50788 0.0266135 0.0156562 0 1.50788 
1.4903 -0.0288762 -0.022334 0 1.4903 
1.5081 0.0261564 0.0172762 0 1.5081 
1.50268 0.00876098 0.00647708 0 1.50268 
1.50491 0.0170748 0.00923507 0 1.50491 
1.49814 -0.00663161 -0.00328405 0 1.49814 
1.49991 -0.000222594 -0.000280535 0 1.49991 
1.49983 -0.000731364 9.05023e-05 0 1.49983 
1.49879 -0.00412123 -0.00250578 0 1.49879 
1.50053 0.00187511 0.00100352 0 1.50053 
1.49808 -0.00652439 -0.00412391 0 1.49808 
1.5003 0.00114745 0.000457685 0 1.5003 
1.50013 0.000410475 0.000404566 0 1.50013 
1.49989 -0.000379098 -0.000269753 0 1.49989 
1.50003 0.000207868 7.58987e-05 0 1.50003 
1.50001 -7.28712e-05 -6.43846e-06 0 1.50001 
1.49989 -0.000355627 -0.000157686 0 1.49989 
1.50029 0.00106256 0.000571448 0 1.50029 
1.4999 -0.000651615 -0.000185702 0 1.4999 
1.49991 -0.000117778 -0.000142957 0 1.49991 
1.50056 0.00186666 0.000945364 0 1.50056 
1.49995 -0.000452455 -0.000215677 0 1.49995 
1.50017 0.00171801 0.000290563 0 1.50017 
1.50043 0.00253124 0.000479554 0 1.50043 
1.49889 -0.00408252 -0.00134165 0 1.49889 
1.50032 0.00264773 -0.000232964 0 1.50032 
1.50728 0.0274167 0.00765861 0 1.50728 
1.49955 -0.00203084 -9.27765e-05 0 1.49955 
1.50632 0.0234065 0.0083848 0 1.50632 
1.50484 0.0175133 0.00719353 0 1.50484 
1.49809 -0.00699538 -0.00260119 0 1.49809 
1.5085 0.0300911 0.0141968 0 1.5085 
1.50061 0.00202257 0.00135391 0 1.50061 
1.49847 -0.00538493 -0.00269511 0 1.49847 
1.37469 -0.450351 -0.143154 0 1.37469 
1.42141 -0.285073 -0.0878219 0 1.42141 
1.46781 -0.116589 -0.0355867 0 1.46781 
1.3878 -0.390257 -0.159056 0 1.3878 
1.43649 -0.22223 -0.0896263 0 1.43649 
1.48111 -0.0655048 -0.0269648 0 1.48111 
1.40654 -0.311799 -0.157955 0 1.40654 
1.4566 -0.146263 -0.072021 0 1.4566 
1.49601 -0.013359 -0.00674925 0 1.49601 
1.35268 -0.553761 -0.0544633 0 1.35268 
1.39059 -0.408894 -0.0348437 0 1.39059 
1.4419 -0.218547 -0.0137756 0 1.4419 
1.35636 -0.532746 -0.0941782 0 1.35636 
1.39826 -0.378805 -0.0599574 0 1.39826 
1.44847 -0.194099 -0.0250539 0 1.44847 
1.36395 -0.497698 -0.122467 0 1.36395 
1.40901 -0.336466 -0.07678 0 1.40901 
1.4573 -0.15947 -0.0327813 0 1.4573 
1.48763 -0.0463954 -0.00105516 0 1.48763 
1.50818 0.0319815 0.00137926 0 1.50818 
1.50244 0.0091071 -0.000334424 0 1.50244 
1.49044 -0.0356888 -0.00272371 0 1.49044 
1.50772 0.0303994 0.00273541 0 1.50772 
1.50211 0.00776305 0.000398615 0 1.50211 
1.49459 -0.0190822 -0.00382978 0 1.49459 
1.50765 0.0298172 0.0049036 0 1.50765 
1.50123 0.00418443 0.00105079 0 1.50123 
1.49835 -0.00583109 -0.00103738 0 1.49835 
1.50045 0.00162693 0.000239499 0 1.50045 
1.5004 0.000940677 3.33982e-05 0 1.5004 
1.49822 -0.00627398 -0.000288255 0 1.49822 
1.49808 -0.00687625 9.47352e-05 0 1.49808 
1.50044 0.00128548 -9.98712e-06 0 1.50044 
1.50049 0.00184159 -7.90984e-05 0 1.50049 
1.498 -0.00722007 0.000267582 0 1.498 
1.49825 -0.00638417 0.000232224 0 1.49825 
1.50043 0.00172204 -0.000120258 0 1.50043 
1.50033 0.001032 -8.7181e-06 0 1.50033 
1.49859 -0.00512957 -3.66048e-05 0 1.49859 
1.49093 -0.0347549 -0.000478811 0 1.49093 
1.5073 0.0284048 -0.00279169 0 1.5073 
1.50153 0.00579206 0.000541757 0 1.50153 
1.48822 -0.0444442 -0.000106056 0 1.48822 
1.50832 0.0320519 -0.00250209 0 1.50832 
1.50192 0.00722204 0.000352962 0 1.50192 
1.48677 -0.0494427 0.000251982 0 1.48677 
1.50855 0.0331398 -0.000802052 0 1.50855 
1.50239 0.00886217 -0.000200346 0 1.50239 
1.3522 -0.543497 0.0913334 0 1.3522 
1.39603 -0.384651 0.0592291 0 1.39603 
1.4484 -0.194306 0.021877 0 1.4484 
1.35191 -0.558066 0.0471869 0 1.35191 
1.38858 -0.414617 0.0327332 0 1.38858 
1.44106 -0.220278 0.013101 0 1.44106 
1.35179 -0.561348 -0.00571115 0 1.35179 
1.387 -0.422384 -0.00267465 0 1.387 
1.43905 -0.228437 0.000218081 0 1.43905 
1.39292 -0.381405 0.146793 0 1.39292 
1.43939 -0.219794 0.0945206 0 1.43939 
1.47696 -0.0813477 0.030465 0 1.47696 
1.38214 -0.433363 0.147326 0 1.38214 
1.42272 -0.285642 0.0787763 0 1.42272 
1.46536 -0.127561 0.0280374 0 1.46536 
1.36256 -0.499838 0.125431 0 1.36256 
1.40736 -0.341523 0.0669008 0 1.40736 
1.45754 -0.160831 0.0262675 0 1.45754 
1.50249 0.0103492 -0.00563412 0 1.50249 
1.5057 0.0208456 -0.00638222 0 1.5057 
1.4987 -0.00496274 0.0013276 0 1.4987 
1.49799 -0.00604237 0.00318646 0 1.49799 
1.50654 0.0249976 -0.0049684 0 1.50654 
1.50019 0.000329502 -0.000959624 0 1.50019 
1.49419 -0.0218133 0.00240089 0 1.49419 
1.50635 0.0250776 -0.00306028 0 1.50635 
1.50127 0.00455452 -0.000497302 0 1.50127 
1.49868 -0.00470761 0.000365663 0 1.49868 
1.50032 0.000922993 -3.79827e-05 0 1.50032 
1.50037 0.0017878 -0.000337034 0 1.50037 
1.49886 -0.00407455 0.0012187 0 1.49886 
1.49956 -0.00176274 0.000663212 0 1.49956 
1.50026 0.00200023 -0.000346062 0 1.50026 
1.50001 0.000570061 3.52252e-05 0 1.50001 
1.50026 0.000772137 -0.000759349 0 1.50026 
1.50036 0.00131587 -0.000717467 0 1.50036 
1.49988 -0.000734086 0.000152342 0 1.49988 
1.50735 0.0258473 -0.0081651 0 1.50735 
1.49748 -0.00894261 -0.000539343 0 1.49748 
1.49986 -0.000405034 0.0016404 0 1.49986 
1.49862 -0.00492777 0.00324629 0 1.49862 
1.50173 0.00613103 -0.00404803 0 1.50173 
1.50625 0.0223473 -0.0134955 0 1.50625 
1.49426 -0.0199163 0.0224618 0 1.49426 
1.45472 -0.156362 0.0847648 0 1.45472 
1.39333 -0.352943 0.120544 0 1.39333 
1.39201 -0.338286 0.0483042 0 1.39201 
1.46553 -0.115342 0.034942 0 1.46553 
1.50878 0.0290479 0.00810108 0 1.50878 
1.20371 -0.805289 -0.00678059 0 1.20371 
1.24774 -0.70912 0.0293761 0 1.24774 
1.3145 -0.548776 0.0470692 0 1.3145 
1.32768 -0.542672 0.115779 0 1.32768 
1.27323 -0.684132 0.0788027 0 1.27323 
1.23551 -0.766475 0.0198775 0 1.23551 
1.21237 -0.799115 -0.040906 0 1.21237 
1.20246 -0.796788 -0.0793772 0 1.20246 
1.2058 -0.771613 -0.0880748 0 1.2058 
1.21638 -0.763938 -0.0382252 0 1.21638 