# vtk DataFile Version 2.0
 Generated by Peano3 output component $Revision: 1.2 $ Author: Tobias Weinzierl
 ASCII
 

DATASET UNSTRUCTURED_GRID
POINTS 2500 float

0.92  0.96  0
0.96  0.96  0
0.92  1  0
0.96  1  0
0.96  0.96  0
1  0.96  0
0.96  1  0
1  1  0
0.96  0.92  0
1  0.92  0
0.96  0.96  0
1  0.96  0
0.92  0.92  0
0.96  0.92  0
0.92  0.96  0
0.96  0.96  0
0.88  0.92  0
0.92  0.92  0
0.88  0.96  0
0.92  0.96  0
0.84  0.92  0
0.88  0.92  0
0.84  0.96  0
0.88  0.96  0
0.8  0.92  0
0.84  0.92  0
0.8  0.96  0
0.84  0.96  0
0.8  0.96  0
0.84  0.96  0
0.8  1  0
0.84  1  0
0.84  0.96  0
0.88  0.96  0
0.84  1  0
0.88  1  0
0.88  0.96  0
0.92  0.96  0
0.88  1  0
0.92  1  0
0.68  0.96  0
0.72  0.96  0
0.68  1  0
0.72  1  0
0.72  0.96  0
0.76  0.96  0
0.72  1  0
0.76  1  0
0.76  0.96  0
0.8  0.96  0
0.76  1  0
0.8  1  0
0.76  0.92  0
0.8  0.92  0
0.76  0.96  0
0.8  0.96  0
0.72  0.92  0
0.76  0.92  0
0.72  0.96  0
0.76  0.96  0
0.68  0.92  0
0.72  0.92  0
0.68  0.96  0
0.72  0.96  0
0.68  0.8  0
0.72  0.8  0
0.68  0.84  0
0.72  0.84  0
0.72  0.8  0
0.76  0.8  0
0.72  0.84  0
0.76  0.84  0
0.76  0.8  0
0.8  0.8  0
0.76  0.84  0
0.8  0.84  0
0.68  0.84  0
0.72  0.84  0
0.68  0.88  0
0.72  0.88  0
0.72  0.84  0
0.76  0.84  0
0.72  0.88  0
0.76  0.88  0
0.76  0.84  0
0.8  0.84  0
0.76  0.88  0
0.8  0.88  0
0.68  0.88  0
0.72  0.88  0
0.68  0.92  0
0.72  0.92  0
0.72  0.88  0
0.76  0.88  0
0.72  0.92  0
0.76  0.92  0
0.76  0.88  0
0.8  0.88  0
0.76  0.92  0
0.8  0.92  0
0.8  0.8  0
0.84  0.8  0
0.8  0.84  0
0.84  0.84  0
0.84  0.8  0
0.88  0.8  0
0.84  0.84  0
0.88  0.84  0
0.88  0.8  0
0.92  0.8  0
0.88  0.84  0
0.92  0.84  0
0.8  0.84  0
0.84  0.84  0
0.8  0.88  0
0.84  0.88  0
0.84  0.84  0
0.88  0.84  0
0.84  0.88  0
0.88  0.88  0
0.88  0.84  0
0.92  0.84  0
0.88  0.88  0
0.92  0.88  0
0.8  0.88  0
0.84  0.88  0
0.8  0.92  0
0.84  0.92  0
0.84  0.88  0
0.88  0.88  0
0.84  0.92  0
0.88  0.92  0
0.88  0.88  0
0.92  0.88  0
0.88  0.92  0
0.92  0.92  0
0.92  0.88  0
0.96  0.88  0
0.92  0.92  0
0.96  0.92  0
0.96  0.88  0
1  0.88  0
0.96  0.92  0
1  0.92  0
0.96  0.84  0
1  0.84  0
0.96  0.88  0
1  0.88  0
0.92  0.84  0
0.96  0.84  0
0.92  0.88  0
0.96  0.88  0
0.92  0.8  0
0.96  0.8  0
0.92  0.84  0
0.96  0.84  0
0.96  0.8  0
1  0.8  0
0.96  0.84  0
1  0.84  0
0.96  0.76  0
1  0.76  0
0.96  0.8  0
1  0.8  0
0.92  0.76  0
0.96  0.76  0
0.92  0.8  0
0.96  0.8  0
0.92  0.72  0
0.96  0.72  0
0.92  0.76  0
0.96  0.76  0
0.96  0.72  0
1  0.72  0
0.96  0.76  0
1  0.76  0
0.96  0.68  0
1  0.68  0
0.96  0.72  0
1  0.72  0
0.92  0.68  0
0.96  0.68  0
0.92  0.72  0
0.96  0.72  0
0.8  0.68  0
0.84  0.68  0
0.8  0.72  0
0.84  0.72  0
0.84  0.68  0
0.88  0.68  0
0.84  0.72  0
0.88  0.72  0
0.88  0.68  0
0.92  0.68  0
0.88  0.72  0
0.92  0.72  0
0.8  0.72  0
0.84  0.72  0
0.8  0.76  0
0.84  0.76  0
0.84  0.72  0
0.88  0.72  0
0.84  0.76  0
0.88  0.76  0
0.88  0.72  0
0.92  0.72  0
0.88  0.76  0
0.92  0.76  0
0.8  0.76  0
0.84  0.76  0
0.8  0.8  0
0.84  0.8  0
0.84  0.76  0
0.88  0.76  0
0.84  0.8  0
0.88  0.8  0
0.88  0.76  0
0.92  0.76  0
0.88  0.8  0
0.92  0.8  0
0.68  0.68  0
0.72  0.68  0
0.68  0.72  0
0.72  0.72  0
0.72  0.68  0
0.76  0.68  0
0.72  0.72  0
0.76  0.72  0
0.76  0.68  0
0.8  0.68  0
0.76  0.72  0
0.8  0.72  0
0.68  0.72  0
0.72  0.72  0
0.68  0.76  0
0.72  0.76  0
0.72  0.72  0
0.76  0.72  0
0.72  0.76  0
0.76  0.76  0
0.76  0.72  0
0.8  0.72  0
0.76  0.76  0
0.8  0.76  0
0.68  0.76  0
0.72  0.76  0
0.68  0.8  0
0.72  0.8  0
0.72  0.76  0
0.76  0.76  0
0.72  0.8  0
0.76  0.8  0
0.76  0.76  0
0.8  0.76  0
0.76  0.8  0
0.8  0.8  0
0.56  0.68  0
0.6  0.68  0
0.56  0.72  0
0.6  0.72  0
0.6  0.68  0
0.64  0.68  0
0.6  0.72  0
0.64  0.72  0
0.64  0.68  0
0.68  0.68  0
0.64  0.72  0
0.68  0.72  0
0.56  0.72  0
0.6  0.72  0
0.56  0.76  0
0.6  0.76  0
0.6  0.72  0
0.64  0.72  0
0.6  0.76  0
0.64  0.76  0
0.64  0.72  0
0.68  0.72  0
0.64  0.76  0
0.68  0.76  0
0.56  0.76  0
0.6  0.76  0
0.56  0.8  0
0.6  0.8  0
0.6  0.76  0
0.64  0.76  0
0.6  0.8  0
0.64  0.8  0
0.64  0.76  0
0.68  0.76  0
0.64  0.8  0
0.68  0.8  0
0.44  0.68  0
0.48  0.68  0
0.44  0.72  0
0.48  0.72  0
0.48  0.68  0
0.52  0.68  0
0.48  0.72  0
0.52  0.72  0
0.52  0.68  0
0.56  0.68  0
0.52  0.72  0
0.56  0.72  0
0.44  0.72  0
0.48  0.72  0
0.44  0.76  0
0.48  0.76  0
0.48  0.72  0
0.52  0.72  0
0.48  0.76  0
0.52  0.76  0
0.52  0.72  0
0.56  0.72  0
0.52  0.76  0
0.56  0.76  0
0.44  0.76  0
0.48  0.76  0
0.44  0.8  0
0.48  0.8  0
0.48  0.76  0
0.52  0.76  0
0.48  0.8  0
0.52  0.8  0
0.52  0.76  0
0.56  0.76  0
0.52  0.8  0
0.56  0.8  0
0.32  0.68  0
0.36  0.68  0
0.32  0.72  0
0.36  0.72  0
0.36  0.68  0
0.4  0.68  0
0.36  0.72  0
0.4  0.72  0
0.4  0.68  0
0.44  0.68  0
0.4  0.72  0
0.44  0.72  0
0.32  0.72  0
0.36  0.72  0
0.32  0.76  0
0.36  0.76  0
0.36  0.72  0
0.4  0.72  0
0.36  0.76  0
0.4  0.76  0
0.4  0.72  0
0.44  0.72  0
0.4  0.76  0
0.44  0.76  0
0.32  0.76  0
0.36  0.76  0
0.32  0.8  0
0.36  0.8  0
0.36  0.76  0
0.4  0.76  0
0.36  0.8  0
0.4  0.8  0
0.4  0.76  0
0.44  0.76  0
0.4  0.8  0
0.44  0.8  0
0.32  0.8  0
0.36  0.8  0
0.32  0.84  0
0.36  0.84  0
0.36  0.8  0
0.4  0.8  0
0.36  0.84  0
0.4  0.84  0
0.4  0.8  0
0.44  0.8  0
0.4  0.84  0
0.44  0.84  0
0.32  0.84  0
0.36  0.84  0
0.32  0.88  0
0.36  0.88  0
0.36  0.84  0
0.4  0.84  0
0.36  0.88  0
0.4  0.88  0
0.4  0.84  0
0.44  0.84  0
0.4  0.88  0
0.44  0.88  0
0.32  0.88  0
0.36  0.88  0
0.32  0.92  0
0.36  0.92  0
0.36  0.88  0
0.4  0.88  0
0.36  0.92  0
0.4  0.92  0
0.4  0.88  0
0.44  0.88  0
0.4  0.92  0
0.44  0.92  0
0.44  0.8  0
0.48  0.8  0
0.44  0.84  0
0.48  0.84  0
0.48  0.8  0
0.52  0.8  0
0.48  0.84  0
0.52  0.84  0
0.52  0.8  0
0.56  0.8  0
0.52  0.84  0
0.56  0.84  0
0.44  0.84  0
0.48  0.84  0
0.44  0.88  0
0.48  0.88  0
0.48  0.84  0
0.52  0.84  0
0.48  0.88  0
0.52  0.88  0
0.52  0.84  0
0.56  0.84  0
0.52  0.88  0
0.56  0.88  0
0.44  0.88  0
0.48  0.88  0
0.44  0.92  0
0.48  0.92  0
0.48  0.88  0
0.52  0.88  0
0.48  0.92  0
0.52  0.92  0
0.52  0.88  0
0.56  0.88  0
0.52  0.92  0
0.56  0.92  0
0.56  0.8  0
0.6  0.8  0
0.56  0.84  0
0.6  0.84  0
0.6  0.8  0
0.64  0.8  0
0.6  0.84  0
0.64  0.84  0
0.64  0.8  0
0.68  0.8  0
0.64  0.84  0
0.68  0.84  0
0.56  0.84  0
0.6  0.84  0
0.56  0.88  0
0.6  0.88  0
0.6  0.84  0
0.64  0.84  0
0.6  0.88  0
0.64  0.88  0
0.64  0.84  0
0.68  0.84  0
0.64  0.88  0
0.68  0.88  0
0.56  0.88  0
0.6  0.88  0
0.56  0.92  0
0.6  0.92  0
0.6  0.88  0
0.64  0.88  0
0.6  0.92  0
0.64  0.92  0
0.64  0.88  0
0.68  0.88  0
0.64  0.92  0
0.68  0.92  0
0.64  0.92  0
0.68  0.92  0
0.64  0.96  0
0.68  0.96  0
0.6  0.92  0
0.64  0.92  0
0.6  0.96  0
0.64  0.96  0
0.56  0.92  0
0.6  0.92  0
0.56  0.96  0
0.6  0.96  0
0.56  0.96  0
0.6  0.96  0
0.56  1  0
0.6  1  0
0.6  0.96  0
0.64  0.96  0
0.6  1  0
0.64  1  0
0.64  0.96  0
0.68  0.96  0
0.64  1  0
0.68  1  0
0.44  0.96  0
0.48  0.96  0
0.44  1  0
0.48  1  0
0.48  0.96  0
0.52  0.96  0
0.48  1  0
0.52  1  0
0.52  0.96  0
0.56  0.96  0
0.52  1  0
0.56  1  0
0.52  0.92  0
0.56  0.92  0
0.52  0.96  0
0.56  0.96  0
0.48  0.92  0
0.52  0.92  0
0.48  0.96  0
0.52  0.96  0
0.44  0.92  0
0.48  0.92  0
0.44  0.96  0
0.48  0.96  0
0.4  0.92  0
0.44  0.92  0
0.4  0.96  0
0.44  0.96  0
0.36  0.92  0
0.4  0.92  0
0.36  0.96  0
0.4  0.96  0
0.32  0.92  0
0.36  0.92  0
0.32  0.96  0
0.36  0.96  0
0.32  0.96  0
0.36  0.96  0
0.32  1  0
0.36  1  0
0.36  0.96  0
0.4  0.96  0
0.36  1  0
0.4  1  0
0.4  0.96  0
0.44  0.96  0
0.4  1  0
0.44  1  0
0.2  0.96  0
0.24  0.96  0
0.2  1  0
0.24  1  0
0.24  0.96  0
0.28  0.96  0
0.24  1  0
0.28  1  0
0.28  0.96  0
0.32  0.96  0
0.28  1  0
0.32  1  0
0.28  0.92  0
0.32  0.92  0
0.28  0.96  0
0.32  0.96  0
0.24  0.92  0
0.28  0.92  0
0.24  0.96  0
0.28  0.96  0
0.2  0.92  0
0.24  0.92  0
0.2  0.96  0
0.24  0.96  0
0.16  0.92  0
0.2  0.92  0
0.16  0.96  0
0.2  0.96  0
0.12  0.92  0
0.16  0.92  0
0.12  0.96  0
0.16  0.96  0
0.08  0.92  0
0.12  0.92  0
0.08  0.96  0
0.12  0.96  0
0.08  0.96  0
0.12  0.96  0
0.08  1  0
0.12  1  0
0.12  0.96  0
0.16  0.96  0
0.12  1  0
0.16  1  0
0.16  0.96  0
0.2  0.96  0
0.16  1  0
0.2  1  0
-3.46945e-17  0.96  0
0.04  0.96  0
-3.46945e-17  1  0
0.04  1  0
0.04  0.96  0
0.08  0.96  0
0.04  1  0
0.08  1  0
0.04  0.92  0
0.08  0.92  0
0.04  0.96  0
0.08  0.96  0
-3.46945e-17  0.92  0
0.04  0.92  0
-3.46945e-17  0.96  0
0.04  0.96  0
-3.46945e-17  0.88  0
0.04  0.88  0
-3.46945e-17  0.92  0
0.04  0.92  0
0.04  0.88  0
0.08  0.88  0
0.04  0.92  0
0.08  0.92  0
0.04  0.84  0
0.08  0.84  0
0.04  0.88  0
0.08  0.88  0
-3.46945e-17  0.84  0
0.04  0.84  0
-3.46945e-17  0.88  0
0.04  0.88  0
-3.46945e-17  0.8  0
0.04  0.8  0
-3.46945e-17  0.84  0
0.04  0.84  0
0.04  0.8  0
0.08  0.8  0
0.04  0.84  0
0.08  0.84  0
0.08  0.8  0
0.12  0.8  0
0.08  0.84  0
0.12  0.84  0
0.12  0.8  0
0.16  0.8  0
0.12  0.84  0
0.16  0.84  0
0.16  0.8  0
0.2  0.8  0
0.16  0.84  0
0.2  0.84  0
0.08  0.84  0
0.12  0.84  0
0.08  0.88  0
0.12  0.88  0
0.12  0.84  0
0.16  0.84  0
0.12  0.88  0
0.16  0.88  0
0.16  0.84  0
0.2  0.84  0
0.16  0.88  0
0.2  0.88  0
0.08  0.88  0
0.12  0.88  0
0.08  0.92  0
0.12  0.92  0
0.12  0.88  0
0.16  0.88  0
0.12  0.92  0
0.16  0.92  0
0.16  0.88  0
0.2  0.88  0
0.16  0.92  0
0.2  0.92  0
0.2  0.8  0
0.24  0.8  0
0.2  0.84  0
0.24  0.84  0
0.24  0.8  0
0.28  0.8  0
0.24  0.84  0
0.28  0.84  0
0.28  0.8  0
0.32  0.8  0
0.28  0.84  0
0.32  0.84  0
0.2  0.84  0
0.24  0.84  0
0.2  0.88  0
0.24  0.88  0
0.24  0.84  0
0.28  0.84  0
0.24  0.88  0
0.28  0.88  0
0.28  0.84  0
0.32  0.84  0
0.28  0.88  0
0.32  0.88  0
0.2  0.88  0
0.24  0.88  0
0.2  0.92  0
0.24  0.92  0
0.24  0.88  0
0.28  0.88  0
0.24  0.92  0
0.28  0.92  0
0.28  0.88  0
0.32  0.88  0
0.28  0.92  0
0.32  0.92  0
0.2  0.68  0
0.24  0.68  0
0.2  0.72  0
0.24  0.72  0
0.24  0.68  0
0.28  0.68  0
0.24  0.72  0
0.28  0.72  0
0.28  0.68  0
0.32  0.68  0
0.28  0.72  0
0.32  0.72  0
0.2  0.72  0
0.24  0.72  0
0.2  0.76  0
0.24  0.76  0
0.24  0.72  0
0.28  0.72  0
0.24  0.76  0
0.28  0.76  0
0.28  0.72  0
[...]
CELL_DATA 625

SCALARS Q float 5
LOOKUP_TABLE default
1.5 -6.2765e-15 2.92057e-15 0 1.5 
1.5 3.1364e-15 3.07889e-15 0 1.5 
1.5 2.90023e-15 -6.31088e-15 0 1.5 
1.5 -6.13617e-15 -6.15491e-15 0 1.5 
1.5 2.5684e-15 -6.20957e-15 0 1.5 
1.5 -3.62205e-16 -6.46136e-15 0 1.5 
1.5 -1.01498e-16 -6.56449e-15 0 1.5 
1.5 -4.91434e-18 3.54596e-15 0 1.5 
1.5 -3.91541e-16 3.35886e-15 0 1.5 
1.5 2.49492e-15 3.1509e-15 0 1.5 
1.5 1.01993e-16 3.48384e-15 0 1.5 
1.5 1.01993e-16 3.48384e-15 0 1.5 
1.5 1.39321e-16 3.48384e-15 0 1.5 
1.5 1.82588e-16 -6.65791e-15 0 1.5 
1.5 6.99605e-17 -6.65791e-15 0 1.5 
1.5 9.06673e-17 -6.65791e-15 0 1.5 
1.5 -1.97308e-17 -1.94442e-17 0 1.5 
1.5 -1.97308e-17 -1.94442e-17 0 1.5 
1.5 -1.97308e-17 -1.94442e-17 0 1.5 
1.5 -1.14928e-17 -6.81949e-16 0 1.5 
1.5 -1.14928e-17 -6.81949e-16 0 1.5 
1.5 -1.51115e-17 -6.81949e-16 0 1.5 
1.5 3.49955e-17 2.28926e-15 0 1.5 
1.5 3.49955e-17 2.28926e-15 0 1.5 
1.5 -1.75732e-17 2.28926e-15 0 1.5 
1.5 -8.58908e-17 -8.15647e-17 0 1.5 
1.5 -5.69685e-16 7.41473e-17 0 1.5 
1.5 2.08179e-15 7.34231e-17 0 1.5 
1.5 5.02741e-17 -5.68061e-16 0 1.5 
1.5 -6.45725e-16 -6.82779e-16 0 1.5 
1.5 2.1049e-15 -8.17347e-16 0 1.5 
1.5 1.60988e-16 2.05113e-15 0 1.5 
1.5 -8.12532e-16 2.10316e-15 0 1.5 
1.5 2.45045e-15 2.42519e-15 0 1.5 
1.5 -6.26882e-15 2.59493e-15 0 1.5 
1.5 3.13292e-15 2.51237e-15 0 1.5 
1.5 3.40029e-15 -3.81293e-16 0 1.5 
1.5 -6.50478e-15 -4.5276e-16 0 1.5 
1.5 -6.5546e-15 2.3464e-17 0 1.5 
1.5 3.5526e-15 -1.89411e-17 0 1.5 
1.5 3.47902e-15 1.16026e-16 0 1.5 
1.5 -6.65987e-15 1.06333e-16 0 1.5 
1.5 -6.65791e-15 5.45658e-17 0 1.5 
1.5 3.48384e-15 8.49659e-17 0 1.5 
1.5 3.48384e-15 8.49659e-17 0 1.5 
1.5 -6.65791e-15 5.45658e-17 0 1.5 
1.5 -1.94442e-17 -1.91678e-17 0 1.5 
1.5 -6.81949e-16 -1.91678e-17 0 1.5 
1.5 2.28926e-15 1.61566e-18 0 1.5 
1.5 -1.94442e-17 -1.91678e-17 0 1.5 
1.5 -6.81949e-16 -1.91678e-17 0 1.5 
1.5 2.28926e-15 1.61566e-18 0 1.5 
1.5 -1.94442e-17 -1.91678e-17 0 1.5 
1.5 -6.78209e-16 -1.91678e-17 0 1.5 
1.5 2.27556e-15 -8.08008e-17 0 1.5 
1.5 -1.91678e-17 -1.91678e-17 0 1.5 
1.5 -1.91678e-17 -1.91678e-17 0 1.5 
1.5 -1.91678e-17 -1.91678e-17 0 1.5 
1.5 -1.91678e-17 -1.91678e-17 0 1.5 
1.5 -1.91678e-17 -1.91678e-17 0 1.5 
1.5 -1.91678e-17 -1.91678e-17 0 1.5 
1.5 -1.91678e-17 -1.91678e-17 0 1.5 
1.5 -1.91678e-17 -1.91678e-17 0 1.5 
1.5 -1.91678e-17 -1.91678e-17 0 1.5 
1.5 -1.91678e-17 -1.91678e-17 0 1.5 
1.5 -1.91678e-17 -1.91678e-17 0 1.5 
1.5 -1.91678e-17 -1.91678e-17 0 1.5 
1.5 -1.91678e-17 -1.91678e-17 0 1.5 
1.5 -1.91678e-17 -1.91678e-17 0 1.5 
1.5 -1.91678e-17 -1.91678e-17 0 1.5 
1.5 -1.91678e-17 -1.91678e-17 0 1.5 
1.5 -1.91678e-17 -1.91678e-17 0 1.5 
1.5 -1.91678e-17 -1.91678e-17 0 1.5 
1.5 -1.91678e-17 -1.91678e-17 0 1.5 
1.5 -1.91678e-17 -1.91678e-17 0 1.5 
1.5 -1.91678e-17 -1.91678e-17 0 1.5 
1.5 -1.91678e-17 -1.91678e-17 0 1.5 
1.5 -1.91678e-17 -1.91678e-17 0 1.5 
1.5 -1.91678e-17 -1.91678e-17 0 1.5 
1.5 -1.91678e-17 -1.91678e-17 0 1.5 
1.5 -1.91678e-17 -1.91678e-17 0 1.5 
1.5 -1.91678e-17 -1.91678e-17 0 1.5 
1.49999 -0.000298597 -8.71889e-06 0 1.49999 
1.49998 -3.51368e-05 -7.84619e-05 0 1.49998 
1.49999 -2.71317e-05 -4.71595e-05 0 1.49999 
1.50003 6.14191e-05 0.000107499 0 1.50003 
1.49999 -1.23899e-05 -2.59155e-05 0 1.49999 
1.5 -1.91678e-17 -1.91678e-17 0 1.5 
1.5 -3.00138e-06 -4.03323e-06 0 1.5 
1.5 -1.91678e-17 -1.91678e-17 0 1.5 
1.5 -1.91678e-17 -1.91678e-17 0 1.5 
1.5 -1.97308e-17 -1.94442e-17 0 1.5 
1.5 -1.97308e-17 -1.94442e-17 0 1.5 
1.5 -1.97308e-17 -1.94442e-17 0 1.5 
1.5 -1.14928e-17 -6.81949e-16 0 1.5 
1.5 -1.14928e-17 -6.81949e-16 0 1.5 
1.5 -1.14928e-17 -6.81949e-16 0 1.5 
1.5 3.49955e-17 2.28926e-15 0 1.5 
1.5 3.49955e-17 2.28926e-15 0 1.5 
1.5 3.49955e-17 2.28926e-15 0 1.5 
1.5 -1.97308e-17 -1.94442e-17 0 1.5 
1.5 -1.97308e-17 -1.94442e-17 0 1.5 
1.5 -1.97308e-17 -1.94442e-17 0 1.5 
1.5 -1.14928e-17 -6.81949e-16 0 1.5 
1.5 -1.14928e-17 -6.81949e-16 0 1.5 
1.5 -1.14928e-17 -6.81949e-16 0 1.5 
1.5 3.49955e-17 2.28926e-15 0 1.5 
1.5 3.49955e-17 2.28926e-15 0 1.5 
1.5 3.49955e-17 2.28926e-15 0 1.5 
1.5 -1.97308e-17 -1.94442e-17 0 1.5 
1.5 -1.97308e-17 -1.94442e-17 0 1.5 
1.5 -1.97308e-17 -1.94442e-17 0 1.5 
1.5 -1.14928e-17 -6.81949e-16 0 1.5 
1.5 -1.14928e-17 -6.81949e-16 0 1.5 
1.5 -1.14928e-17 -6.81949e-16 0 1.5 
1.5 3.49955e-17 2.28926e-15 0 1.5 
1.5 3.49955e-17 2.28926e-15 0 1.5 
1.5 3.49955e-17 2.28926e-15 0 1.5 
1.5 9.06673e-17 -6.65791e-15 0 1.5 
1.5 9.06673e-17 -6.65791e-15 0 1.5 
1.5 9.06673e-17 -6.65791e-15 0 1.5 
1.5 1.01993e-16 3.48384e-15 0 1.5 
1.5 1.01993e-16 3.48384e-15 0 1.5 
1.5 1.01993e-16 3.48384e-15 0 1.5 
1.5 1.01993e-16 3.48384e-15 0 1.5 
1.5 1.01993e-16 3.48384e-15 0 1.5 
1.5 1.01993e-16 3.48384e-15 0 1.5 
1.5 9.06673e-17 -6.65791e-15 0 1.5 
1.5 9.06673e-17 -6.65791e-15 0 1.5 
1.5 9.06673e-17 -6.65791e-15 0 1.5 
1.5 9.06673e-17 -6.65791e-15 0 1.5 
1.5 9.06673e-17 -6.65791e-15 0 1.5 
1.5 9.06673e-17 -6.65791e-15 0 1.5 
1.5 1.01993e-16 3.48384e-15 0 1.5 
1.5 1.01993e-16 3.48384e-15 0 1.5 
1.5 1.01993e-16 3.48384e-15 0 1.5 
1.5 9.47556e-17 3.48384e-15 0 1.5 
1.5 1.01993e-16 3.48384e-15 0 1.5 
1.5 1.01993e-16 3.48384e-15 0 1.5 
1.5 9.06673e-17 -6.65791e-15 0 1.5 
1.5 9.06673e-17 -6.65791e-15 0 1.5 
1.5 3.87227e-17 -6.65791e-15 0 1.5 
1.5 1.07444e-16 -6.56449e-15 0 1.5 
1.5 6.23873e-16 -6.4303e-15 0 1.5 
1.5 -2.42444e-15 -6.44872e-15 0 1.5 
1.5 -2.34065e-15 3.25467e-15 0 1.5 
1.5 5.39883e-16 3.35886e-15 0 1.5 
1.5 1.3038e-16 3.54596e-15 0 1.5 
1.5 -3.08451e-15 3.07889e-15 0 1.5 
1.5 6.43999e-15 2.95222e-15 0 1.5 
1.5 6.16708e-15 -6.24875e-15 0 1.5 
1.5 -2.97467e-15 -6.22763e-15 0 1.5 
1.5 -3.21111e-15 2.43972e-15 0 1.5 
1.5 6.43654e-15 2.65724e-15 0 1.5 
1.5 6.57372e-15 -5.45941e-16 0 1.5 
1.5 -3.46913e-15 -2.25757e-16 0 1.5 
1.5 -3.55241e-15 -1.01592e-16 0 1.5 
1.5 6.7643e-15 8.5115e-17 0 1.5 
1.5 -3.59947e-06 -1.00734e-05 0 1.5 
1.5 -2.86609e-06 -8.04673e-06 0 1.5 
1.5 -2.86609e-06 -8.04673e-06 0 1.5 
1.5 -2.0626e-15 -8.79153e-16 0 1.5 
1.5 6.56681e-16 -6.82779e-16 0 1.5 
1.5 1.10174e-17 -5.68061e-16 0 1.5 
1.5 -2.46801e-15 2.35286e-15 0 1.5 
1.5 8.5906e-16 2.05139e-15 0 1.5 
1.5 -4.32947e-17 2.05113e-15 0 1.5 
1.5 -2.86609e-06 -8.04673e-06 0 1.5 
1.5 -2.86609e-06 -8.04673e-06 0 1.5 
1.5 7.51072e-07 2.05832e-06 0 1.5 
1.5 -7.31431e-18 -6.81949e-16 0 1.5 
1.5 -1.14928e-17 -6.81949e-16 0 1.5 
1.5 -1.14928e-17 -6.81949e-16 0 1.5 
1.5 4.78811e-17 2.28926e-15 0 1.5 
1.5 3.49955e-17 2.28926e-15 0 1.5 
1.5 3.49955e-17 2.28926e-15 0 1.5 
1.49914 0.000427725 -0.00325664 0 1.49914 
1.49974 -0.000310987 -0.000950878 0 1.49974 
1.50034 0.0006001 0.00119287 0 1.50034 
1.50002 -5.19987e-05 7.59754e-05 0 1.50002 
1.50001 -0.000102445 -8.19105e-06 0 1.50001 
1.49995 -0.000152847 -0.00018181 0 1.49995 
1.50001 -2.31413e-05 4.25387e-05 0 1.50001 
1.49999 1.28466e-05 -2.5239e-05 0 1.49999 
1.5 1.02889e-06 -5.98767e-06 0 1.5 
1.49908 -0.000688312 -0.00342418 0 1.49908 
1.49934 0.000182432 -0.00255089 0 1.49934 
1.49926 6.76687e-05 -0.0028393 0 1.49926 
1.50013 4.02378e-05 0.000474673 0 1.50013 
1.50003 -0.000144318 0.00013473 0 1.50003 
1.50005 -0.000117146 0.000173933 0 1.50005 
1.50001 -2.33808e-05 3.31914e-05 0 1.50001 
1.50001 -2.34652e-05 4.09791e-05 0 1.50001 
1.50001 -2.31413e-05 4.25387e-05 0 1.50001 
1.50001 -3.45757e-05 4.87204e-05 0 1.50001 
1.5 -3.45453e-15 1.16026e-16 0 1.5 
1.50003 -8.80985e-05 0.000123017 0 1.50003 
1.50005 -3.31407e-05 0.00020642 0 1.50005 
1.49972 0.000456702 -0.00118032 0 1.49972 
1.50017 -5.33831e-05 0.000638996 0 1.50017 
1.49939 0.00196587 -0.00236539 0 1.49939 
1.501 -0.00288689 0.00404078 0 1.501 
1.49977 0.00699137 -0.00336363 0 1.49977 
1.50147 -0.0106269 0.0053525 0 1.50147 
1.50128 0.0370341 0.0113159 0 1.50128 
1.45404 0.0828975 -0.148783 0 1.45404 
1.42658 0.105123 -0.291226 0 1.42658 
1.39097 0.0079745 -0.403827 0 1.39097 
1.38283 0.00442031 -0.414672 0 1.38283 
1.48907 -0.0111039 -0.040373 0 1.48907 
1.48903 -0.00140698 -0.0400213 0 1.48903 
1.4915 -0.000832037 -0.0342166 0 1.4915 
1.50412 0.00255381 0.0155877 0 1.50412 
1.50408 0.00032649 0.0155429 0 1.50408 
1.50367 0.000516168 0.0142862 0 1.50367 
1.39282 -0.0255036 -0.404299 0 1.39282 
1.40945 -0.0961997 -0.344971 0 1.40945 
1.43078 -0.0993562 -0.224494 0 1.43078 
1.48813 0.00738827 -0.0434142 0 1.48813 
1.4975 -0.00498474 -0.00863273 0 1.4975 
1.51078 0.010625 0.0384036 0 1.51078 
1.5046 -0.00210396 0.017293 0 1.5046 
1.50164 0.002517 0.0062403 0 1.50164 
1.4981 -0.00234211 -0.00692897 0 1.4981 
1.00282 -0.000864753 -0.00715633 0 1.00282 
0.9984 0.010213 0.00359643 0 0.9984 
1.0076 0.00278997 -0.0207249 0 1.0076 
1.11661 0.00681892 -0.404238 0 1.11661 
1.1394 -0.051886 -0.491782 0 1.1394 
1.22149 -0.25822 -0.71869 0 1.22149 
1.26134 -0.0296066 -0.758654 0 1.26134 
1.27206 -0.110255 -0.774541 0 1.27206 
1.28397 -0.254731 -0.701697 0 1.28397 
1.0468 0.108735 -0.0979085 0 1.0468 
1.00385 0.000693611 -0.0115968 0 1.00385 
1.00152 -0.00169448 -0.00537003 0 1.00152 
1.16894 0.221589 -0.512838 0 1.16894 
1.14276 0.0865156 -0.4444 0 1.14276 
1.11393 -0.0138514 -0.409344 0 1.11393 
1.30121 0.232795 -0.679092 0 1.30121 
1.26956 0.0656425 -0.731872 0 1.26956 
1.24814 0.00527154 -0.741913 0 1.24814 
1.35518 0.306998 -0.446192 0 1.35518 
1.40589 0.21962 -0.246247 0 1.40589 
1.24901 0.172577 -0.596564 0 1.24901 
1.26854 0.469178 -0.614898 0 1.26854 
1.10899 0.245111 -0.30911 0 1.10899 
1.16381 0.192769 -0.560313 0 1.16381 
1.04351 0.038094 -0.149633 0 1.04351 
1.02274 0.0408369 -0.0792072 0 1.02274 
1.0039 0.00708867 -0.0119442 0 1.0039 
1.00419 -0.0149029 -0.0127067 0 1.00419 
0.99834 0.00285268 0.00519495 0 0.99834 
0.998906 -0.00141095 0.00333777 0 0.998906 
1.00048 0.00061758 -0.00131487 0 1.00048 
1.00005 4.50057e-05 -0.000158671 0 1.00005 
1.00001 -8.77844e-05 -3.30071e-05 0 1.00001 
0.997323 -0.00501914 0.00670168 0 0.997323 
1.00069 0.00129876 -0.00159571 0 1.00069 
1.00015 0.000158976 -0.000474104 0 1.00015 
1.00654 0.0197985 -0.00581543 0 1.00654 
0.995813 -0.00694006 0.00826664 0 0.995813 
0.998928 0.000655286 0.00407551 0 0.998928 
1.00001 5.87302e-05 -0.000108101 0 1.00001 
1.00009 -0.000199338 -6.83112e-05 0 1.00009 
1.00039 -0.00103201 0.000169091 0 1.00039 
1.00006 0.000155538 -0.000317526 0 1.00006 
1.00003 4.72737e-05 8.65094e-05 0 1.00003 
1.00131 -0.00265931 -0.00288329 0 1.00131 
0.998626 2.30464e-05 0.0042513 0 0.998626 
0.999998 -0.0031946 0.00203402 0 0.999998 
0.993558 0.0107405 0.0082685 0 0.993558 
0.995804 0.013223 -0.00404047 0 0.995804 
1.0167 -0.0558243 0.0217301 0 1.0167 
1.17358 -0.699419 -0.0660346 0 1.17358 
1.244 -0.700441 -0.152781 0 1.244 
1.45236 -0.140825 -0.0962098 0 1.45236 
1.50979 0.0339332 0.011601 0 1.50979 
1.49824 -0.00605863 -0.00248539 0 1.49824 
1.50027 0.000883925 0.00065304 0 1.50027 
1.49998 -5.39665e-05 -0.000116483 0 1.49998 
0.991326 0.0204441 0.0144727 0 0.991326 
1.04331 -0.107233 -0.0834624 0 1.04331 
1.27381 -0.826421 -0.220919 0 1.27381 
1.32233 -0.674207 -0.0861825 0 1.32233 
1.47652 -0.0830939 0.0276026 0 1.47652 
1.50929 0.0349757 -0.00462605 0 1.50929 
1.49855 -0.00554131 0.00125959 0 1.49855 
1.50003 0.000134653 -0.000270028 0 1.50003 
1.50002 9.15773e-05 -1.01646e-05 0 1.50002 
1.00688 -0.0162323 0.0128283 0 1.00688 
1.15572 -0.47247 -0.413404 0 1.15572 
1.26559 -0.71373 -0.44999 0 1.26559 
1.38226 -0.408917 -0.257981 0 1.38226 
1.49224 -0.0296988 -0.00169285 0 1.49224 
1.50369 0.0140842 0.00333221 0 1.50369 
1.49928 -0.00269483 -0.00018595 0 1.49928 
1.50005 0.00017775 -0.000206876 0 1.50005 
1.50001 4.21951e-05 3.53168e-05 0 1.50001 
1.16226 -0.429028 -0.413624 0 1.16226 
1.24964 -0.679573 -0.538154 0 1.24964 
1.30334 -0.463967 -0.427267 0 1.30334 
1.46478 -0.0751064 -0.106188 0 1.46478 
1.50742 0.021236 0.0215534 0 1.50742 
1.49854 -0.0044752 -0.00388816 0 1.49854 
1.50023 0.000716209 0.000482127 0 1.50023 
1.49999 -2.10488e-05 -3.85814e-05 0 1.49999 
1.5 -1.54109e-05 -6.91036e-06 0 1.5 
1.2613 -0.505108 -0.704727 0 1.2613 
1.30292 -0.493905 -0.478391 0 1.30292 
1.45235 -0.14977 -0.117498 0 1.45235 
1.5134 0.0375663 0.0420044 0 1.5134 
1.49739 -0.00784386 -0.0081971 0 1.49739 
1.50062 0.00199007 0.00168251 0 1.50062 
1.49992 -0.00028763 -0.000223297 0 1.49992 
1.49999 -4.26646e-05 -2.11365e-05 0 1.49999 
1.5 -1.91678e-17 -1.91678e-17 0 1.5 
1.34304 -0.291005 -0.510757 0 1.34304 
1.44517 -0.140388 -0.145054 0 1.44517 
1.51057 0.0392392 0.0325054 0 1.51057 
1.49705 -0.00851593 -0.0104292 0 1.49705 
1.50093 0.00290105 0.00282549 0 1.50093 
1.4998 -0.000683626 -0.00056043 0 1.4998 
1.49998 -6.74903e-05 -4.02169e-05 0 1.49998 
1.5 -1.91678e-17 -1.91678e-17 0 1.5 
1.5 -1.91678e-17 -1.91678e-17 0 1.5 
1.48904 -0.0143472 -0.0317809 0 1.48904 
1.5099 0.0281981 0.0295564 0 1.5099 
1.49814 -0.00768664 -0.00569281 0 1.49814 
1.50091 0.0026098 0.0030053 0 1.50091 
1.49975 -0.000799797 -0.000788529 0 1.49975 
1.49998 -7.58657e-05 -6.07942e-05 0 1.49998 
1.5 -1.91678e-17 -1.91678e-17 0 1.5 
1.5 -1.91678e-17 -1.91678e-17 0 1.5 
1.5 -1.91678e-17 -1.91678e-17 0 1.5 
1.50463 0.00687297 0.0158207 0 1.50463 
1.49791 -0.0059415 -0.00658779 0 1.49791 
1.5007 0.00213273 0.00230771 0 1.5007 
1.49978 -0.00061076 -0.000755663 0 1.49978 
1.49998 -6.79899e-05 -7.38886e-05 0 1.49998 
1.5 -1.91678e-17 -1.91678e-17 0 1.5 
1.5 -1.91678e-17 -1.91678e-17 0 1.5 
1.5 -1.91678e-17 -1.91678e-17 0 1.5 
1.5 -1.91678e-17 -1.91678e-17 0 1.5 
1.49924 -0.000656893 -0.00269745 0 1.49924 
1.50042 0.000926736 0.00141324 0 1.50042 
1.49987 -0.000327088 -0.000475761 0 1.49987 
1.49998 -5.05097e-05 -7.34654e-05 0 1.49998 
1.5 -1.91678e-17 -1.91678e-17 0 1.5 
1.5 -1.91678e-17 -1.91678e-17 0 1.5 
1.5 -1.91678e-17 -1.91678e-17 0 1.5 
1.5 -1.91678e-17 -1.91678e-17 0 1.5 
1.5 -1.91678e-17 -1.91678e-17 0 1.5 
1.5 -1.91678e-17 -1.91678e-17 0 1.5 
1.5 -1.91678e-17 -1.91678e-17 0 1.5 
1.5 -1.91678e-17 -1.91678e-17 0 1.5 
1.5 -1.91678e-17 -1.91678e-17 0 1.5 
1.5 -1.91678e-17 -1.91678e-17 0 1.5 
1.5 -1.91678e-17 -1.91678e-17 0 1.5 
1.5 -1.91678e-17 -1.91678e-17 0 1.5 
1.5 -1.91678e-17 -1.91678e-17 0 1.5 
1.5 -1.91678e-17 -1.91678e-17 0 1.5 
1.5 -1.94442e-17 -1.91678e-17 0 1.5 
1.5 -6.81949e-16 -1.91678e-17 0 1.5 
1.5 2.28926e-15 1.61566e-18 0 1.5 
1.5 -1.94442e-17 -1.91678e-17 0 1.5 
1.5 -6.81949e-16 -1.91678e-17 0 1.5 
1.5 2.28926e-15 1.61566e-18 0 1.5 
1.5 -1.94442e-17 -1.91678e-17 0 1.5 
1.5 -6.81949e-16 -1.91678e-17 0 1.5 
1.5 2.28926e-15 1.61566e-18 0 1.5 
1.5 -6.65791e-15 5.45658e-17 0 1.5 
1.5 3.48384e-15 8.49659e-17 0 1.5 
1.5 3.48384e-15 8.49659e-17 0 1.5 
1.5 -6.65791e-15 5.45658e-17 0 1.5 
1.5 -6.65791e-15 5.45658e-17 0 1.5 
1.5 3.48384e-15 8.49659e-17 0 1.5 
1.5 3.48384e-15 8.49659e-17 0 1.5 
1.5 -6.65791e-15 5.45658e-17 0 1.5 
1.5 -6.65791e-15 5.45658e-17 0 1.5 
1.5 3.48384e-15 8.49659e-17 0 1.5 
1.5 3.48384e-15 8.49659e-17 0 1.5 
1.5 -6.65791e-15 5.45658e-17 0 1.5 
1.5 -1.94442e-17 -1.91678e-17 0 1.5 
1.5 -6.81949e-16 -1.91678e-17 0 1.5 
1.5 2.28926e-15 1.61566e-18 0 1.5 
1.5 -1.94442e-17 -1.91678e-17 0 1.5 
1.5 -6.81949e-16 -1.91678e-17 0 1.5 
1.5 2.28926e-15 1.61566e-18 0 1.5 
1.5 -1.94442e-17 -1.91678e-17 0 1.5 
1.5 -6.81949e-16 -1.91678e-17 0 1.5 
1.5 2.28926e-15 1.61566e-18 0 1.5 
1.5 -1.91678e-17 -1.91678e-17 0 1.5 
1.5 -1.91678e-17 -1.91678e-17 0 1.5 
1.5 -1.91678e-17 -1.91678e-17 0 1.5 
1.5 -1.91678e-17 -1.91678e-17 0 1.5 
1.5 -1.91678e-17 -1.91678e-17 0 1.5 
1.5 -1.91678e-17 -1.91678e-17 0 1.5 
1.5 -1.91678e-17 -1.91678e-17 0 1.5 
1.5 -1.91678e-17 -1.91678e-17 0 1.5 
1.5 -1.91678e-17 -1.91678e-17 0 1.5 
1.49999 -2.58396e-05 -3.33387e-06 0 1.49999 
1.5 -1.91678e-17 -1.91678e-17 0 1.5 
1.5 -1.91678e-17 -1.91678e-17 0 1.5 
1.5 -1.63496e-05 -1.91678e-17 0 1.5 
1.5 -1.91678e-17 -1.91678e-17 0 1.5 
1.5 -1.91678e-17 -1.91678e-17 0 1.5 
1.5 -8.04673e-06 -2.86609e-06 0 1.5 
1.5 -1.91678e-17 -1.91678e-17 0 1.5 
1.5 -1.91678e-17 -1.91678e-17 0 1.5 
1.5 -1.94442e-17 -1.91678e-17 0 1.5 
1.5 -6.81949e-16 -1.91678e-17 0 1.5 
1.5 2.28926e-15 1.61566e-18 0 1.5 
1.5 -1.94442e-17 -1.91678e-17 0 1.5 
1.5 -6.81949e-16 -1.91678e-17 0 1.5 
1.5 2.28926e-15 1.61566e-18 0 1.5 
1.5 -1.94442e-17 -1.91678e-17 0 1.5 
1.5 -6.81949e-16 -1.91678e-17 0 1.5 
1.5 2.28926e-15 1.61566e-18 0 1.5 
1.5 -6.65791e-15 5.45658e-17 0 1.5 
1.5 3.48384e-15 8.49659e-17 0 1.5 
1.5 3.48384e-15 8.49659e-17 0 1.5 
1.5 -6.65791e-15 5.45658e-17 0 1.5 
1.5 -6.65791e-15 5.45658e-17 0 1.5 
1.5 3.48384e-15 8.49659e-17 0 1.5 
1.5 3.48384e-15 8.49659e-17 0 1.5 
1.5 -6.65791e-15 5.45658e-17 0 1.5 
1.5 -6.65791e-15 5.45658e-17 0 1.5 
1.5 3.48384e-15 8.49659e-17 0 1.5 
1.5 3.47902e-15 4.35523e-17 0 1.5 
1.5 -6.65987e-15 1.31522e-17 0 1.5 
1.5 -1.94442e-17 -1.91678e-17 0 1.5 
1.5 -6.78209e-16 -1.91678e-17 0 1.5 
1.5 2.27556e-15 4.25598e-17 0 1.5 
1.5 -1.94442e-17 -1.91678e-17 0 1.5 
1.5 -6.81949e-16 -1.91678e-17 0 1.5 
1.5 2.28926e-15 1.61566e-18 0 1.5 
1.5 -1.94442e-17 -1.91678e-17 0 1.5 
1.5 -6.81949e-16 -1.91678e-17 0 1.5 
1.5 2.28926e-15 1.61566e-18 0 1.5 
1.5 -1.63496e-05 -1.91678e-17 0 1.5 
1.5 -1.91678e-17 -1.91678e-17 0 1.5 
1.5 -1.91678e-17 -1.91678e-17 0 1.5 
1.50001 3.80393e-05 -2.87392e-05 0 1.50001 
1.5 -1.91678e-17 -1.91678e-17 0 1.5 
1.5 -1.91678e-17 -1.91678e-17 0 1.5 
1.5 -2.36808e-06 9.6262e-06 0 1.5 
1.5 -8.04673e-06 -2.86609e-06 0 1.5 
1.5 -1.91678e-17 -1.91678e-17 0 1.5 
1.5 3.49955e-17 -2.1608e-15 0 1.5 
1.5 3.49955e-17 -2.1608e-15 0 1.5 
1.5 2.25584e-18 -2.1608e-15 0 1.5 
1.5 -1.14928e-17 7.2686e-16 0 1.5 
1.5 -1.14928e-17 7.2686e-16 0 1.5 
1.5 -1.14928e-17 7.2686e-16 0 1.5 
1.5 -8.04673e-06 -2.86609e-06 0 1.5 
1.5 -1.97308e-17 6.40279e-17 0 1.5 
1.5 -1.97308e-17 6.40279e-17 0 1.5 
1.5 2.81944e-16 -2.05727e-15 0 1.5 
1.5 -8.50333e-16 -2.06798e-15 0 1.5 
1.5 2.42273e-15 -2.34895e-15 0 1.5 
1.5 6.57345e-17 6.23325e-16 0 1.5 
1.5 -6.47372e-16 6.9616e-16 0 1.5 
1.5 2.07298e-15 8.72361e-16 0 1.5 
1.5 -8.58908e-17 6.40279e-17 0 1.5 
1.5 -5.69685e-16 -1.90341e-17 0 1.5 
1.5 2.08292e-15 -4.95563e-17 0 1.5 
1.5 -6.55572e-15 2.30942e-16 0 1.5 
1.5 3.5526e-15 1.57675e-16 0 1.5 
1.5 3.43621e-15 5.92885e-16 0 1.5 
1.5 -6.48618e-15 4.69046e-16 0 1.5 
1.5 -6.42321e-15 -2.44569e-15 0 1.5 
1.5 3.30125e-15 -2.32202e-15 0 1.5 
1.5 2.97701e-15 6.40899e-15 0 1.5 
1.5 -6.23324e-15 6.27261e-15 0 1.5 
1.5 -6.29217e-15 -3.00384e-15 0 1.5 
1.5 3.16662e-15 -3.01578e-15 0 1.5 
1.5 1.59392e-17 -3.54591e-15 0 1.5 
1.5 -3.56311e-16 -3.45199e-15 0 1.5 
1.5 2.48574e-15 -3.18211e-15 0 1.5 
1.5 2.61576e-15 6.46244e-15 0 1.5 
1.5 -5.0276e-16 6.68172e-15 0 1.5 
1.5 2.10673e-17 6.66099e-15 0 1.5 
1.5 1.38022e-16 6.66064e-15 0 1.5 
1.5 6.99605e-17 6.66064e-15 0 1.5 
1.5 9.06673e-17 6.66064e-15 0 1.5 
1.5 1.01993e-16 -3.46297e-15 0 1.5 
1.5 1.01993e-16 -3.46297e-15 0 1.5 
1.5 1.08261e-16 -3.46297e-15 0 1.5 
1.5 1.01993e-16 -3.46297e-15 0 1.5 
1.5 1.01993e-16 -3.46297e-15 0 1.5 
1.5 1.01993e-16 -3.46297e-15 0 1.5 
1.5 9.06673e-17 6.66064e-15 0 1.5 
1.5 9.06673e-17 6.66064e-15 0 1.5 
1.50005 0.000189689 -0.000150286 0 1.50005 
1.50006 0.000149194 -0.000137841 0 1.50006 
1.49857 -0.00437745 0.00345375 0 1.49857 
1.5067 0.0159267 -0.018113 0 1.5067 
1.49803 -0.00505318 0.00613778 0 1.49803 
1.50023 0.000649522 -1.14731e-05 0 1.50023 
1.50008 0.0002853 -0.000233877 0 1.50008 
1.45524 -0.0944788 0.141495 0 1.45524 
1.49709 -0.0127185 0.0185878 0 1.49709 
1.50448 0.013667 -0.0189439 0 1.50448 
1.49956 -0.00467756 -0.00422511 0 1.49956 
1.41156 -0.222234 0.229535 0 1.41156 
1.35205 -0.290131 0.456762 0 1.35205 
1.26691 -0.469601 0.616002 0 1.26691 
1.32461 -0.421635 0.462124 0 1.32461 
1.39803 -0.24573 0.253267 0 1.39803 
1.12332 -0.290335 0.326099 0 1.12332 
1.24837 -0.559763 0.522709 0 1.24837 
1.34444 -0.48462 0.350426 0 1.34444 
1.02925 -0.058994 0.067345 0 1.02925 
1.14281 -0.402213 0.279824 0 1.14281 
1.27834 -0.69251 0.376583 0 1.27834 
1.49521 0.00179883 0.0200288 0 1.49521 
1.50318 0.0100836 -0.00764368 0 1.50318 
1.49929 -0.00256577 0.00132868 0 1.49929 
1.43776 -0.205421 0.130069 0 1.43776 
1.50063 0.00148376 0.0025531 0 1.50063 
1.50064 0.00262896 -0.00202794 0 1.50064 
1.39011 -0.422046 0.121308 0 1.39011 
1.49412 -0.0316659 -0.0282421 0 1.49412 
1.50298 0.0125523 0.00582734 0 1.50298 