# vtk DataFile Version 2.0
 Generated by Peano3 output component $Revision: 1.2 $ Author: Tobias Weinzierl
 ASCII
 

DATASET UNSTRUCTURED_GRID
POINTS 2500 float

0.92  0.96  0
0.96  0.96  0
0.92  1  0
0.96  1  0
0.96  0.96  0
1  0.96  0
0.96  1  0
1  1  0
0.96  0.92  0
1  0.92  0
0.96  0.96  0
1  0.96  0
0.92  0.92  0
0.96  0.92  0
0.92  0.96  0
0.96  0.96  0
0.88  0.92  0
0.92  0.92  0
0.88  0.96  0
0.92  0.96  0
0.84  0.92  0
0.88  0.92  0
0.84  0.96  0
0.88  0.96  0
0.8  0.92  0
0.84  0.92  0
0.8  0.96  0
0.84  0.96  0
0.8  0.96  0
0.84  0.96  0
0.8  1  0
0.84  1  0
0.84  0.96  0
0.88  0.96  0
0.84  1  0
0.88  1  0
0.88  0.96  0
0.92  0.96  0
0.88  1  0
0.92  1  0
0.68  0.96  0
0.72  0.96  0
0.68  1  0
0.72  1  0
0.72  0.96  0
0.76  0.96  0
0.72  1  0
0.76  1  0
0.76  0.96  0
0.8  0.96  0
0.76  1  0
0.8  1  0
0.76  0.92  0
0.8  0.92  0
0.76  0.96  0
0.8  0.96  0
0.72  0.92  0
0.76  0.92  0
0.72  0.96  0
0.76  0.96  0
0.68  0.92  0
0.72  0.92  0
0.68  0.96  0
0.72  0.96  0
0.68  0.8  0
0.72  0.8  0
0.68  0.84  0
0.72  0.84  0
0.72  0.8  0
0.76  0.8  0
0.72  0.84  0
0.76  0.84  0
0.76  0.8  0
0.8  0.8  0
0.76  0.84  0
0.8  0.84  0
0.68  0.84  0
0.72  0.84  0
0.68  0.88  0
0.72  0.88  0
0.72  0.84  0
0.76  0.84  0
0.72  0.88  0
0.76  0.88  0
0.76  0.84  0
0.8  0.84  0
0.76  0.88  0
0.8  0.88  0
0.68  0.88  0
0.72  0.88  0
0.68  0.92  0
0.72  0.92  0
0.72  0.88  0
0.76  0.88  0
0.72  0.92  0
0.76  0.92  0
0.76  0.88  0
0.8  0.88  0
0.76  0.92  0
0.8  0.92  0
0.8  0.8  0
0.84  0.8  0
0.8  0.84  0
0.84  0.84  0
0.84  0.8  0
0.88  0.8  0
0.84  0.84  0
0.88  0.84  0
0.88  0.8  0
0.92  0.8  0
0.88  0.84  0
0.92  0.84  0
0.8  0.84  0
0.84  0.84  0
0.8  0.88  0
0.84  0.88  0
0.84  0.84  0
0.88  0.84  0
0.84  0.88  0
0.88  0.88  0
0.88  0.84  0
0.92  0.84  0
0.88  0.88  0
0.92  0.88  0
0.8  0.88  0
0.84  0.88  0
0.8  0.92  0
0.84  0.92  0
0.84  0.88  0
0.88  0.88  0
0.84  0.92  0
0.88  0.92  0
0.88  0.88  0
0.92  0.88  0
0.88  0.92  0
0.92  0.92  0
0.92  0.88  0
0.96  0.88  0
0.92  0.92  0
0.96  0.92  0
0.96  0.88  0
1  0.88  0
0.96  0.92  0
1  0.92  0
0.96  0.84  0
1  0.84  0
0.96  0.88  0
1  0.88  0
0.92  0.84  0
0.96  0.84  0
0.92  0.88  0
0.96  0.88  0
0.92  0.8  0
0.96  0.8  0
0.92  0.84  0
0.96  0.84  0
0.96  0.8  0
1  0.8  0
0.96  0.84  0
1  0.84  0
0.96  0.76  0
1  0.76  0
0.96  0.8  0
1  0.8  0
0.92  0.76  0
0.96  0.76  0
0.92  0.8  0
0.96  0.8  0
0.92  0.72  0
0.96  0.72  0
0.92  0.76  0
0.96  0.76  0
0.96  0.72  0
1  0.72  0
0.96  0.76  0
1  0.76  0
0.96  0.68  0
1  0.68  0
0.96  0.72  0
1  0.72  0
0.92  0.68  0
0.96  0.68  0
0.92  0.72  0
0.96  0.72  0
0.8  0.68  0
0.84  0.68  0
0.8  0.72  0
0.84  0.72  0
0.84  0.68  0
0.88  0.68  0
0.84  0.72  0
0.88  0.72  0
0.88  0.68  0
0.92  0.68  0
0.88  0.72  0
0.92  0.72  0
0.8  0.72  0
0.84  0.72  0
0.8  0.76  0
0.84  0.76  0
0.84  0.72  0
0.88  0.72  0
0.84  0.76  0
0.88  0.76  0
0.88  0.72  0
0.92  0.72  0
0.88  0.76  0
0.92  0.76  0
0.8  0.76  0
0.84  0.76  0
0.8  0.8  0
0.84  0.8  0
0.84  0.76  0
0.88  0.76  0
0.84  0.8  0
0.88  0.8  0
0.88  0.76  0
0.92  0.76  0
0.88  0.8  0
0.92  0.8  0
0.68  0.68  0
0.72  0.68  0
0.68  0.72  0
0.72  0.72  0
0.72  0.68  0
0.76  0.68  0
0.72  0.72  0
0.76  0.72  0
0.76  0.68  0
0.8  0.68  0
0.76  0.72  0
0.8  0.72  0
0.68  0.72  0
0.72  0.72  0
0.68  0.76  0
0.72  0.76  0
0.72  0.72  0
0.76  0.72  0
0.72  0.76  0
0.76  0.76  0
0.76  0.72  0
0.8  0.72  0
0.76  0.76  0
0.8  0.76  0
0.68  0.76  0
0.72  0.76  0
0.68  0.8  0
0.72  0.8  0
0.72  0.76  0
0.76  0.76  0
0.72  0.8  0
0.76  0.8  0
0.76  0.76  0
0.8  0.76  0
0.76  0.8  0
0.8  0.8  0
0.56  0.68  0
0.6  0.68  0
0.56  0.72  0
0.6  0.72  0
0.6  0.68  0
0.64  0.68  0
0.6  0.72  0
0.64  0.72  0
0.64  0.68  0
0.68  0.68  0
0.64  0.72  0
0.68  0.72  0
0.56  0.72  0
0.6  0.72  0
0.56  0.76  0
0.6  0.76  0
0.6  0.72  0
0.64  0.72  0
0.6  0.76  0
0.64  0.76  0
0.64  0.72  0
0.68  0.72  0
0.64  0.76  0
0.68  0.76  0
0.56  0.76  0
0.6  0.76  0
0.56  0.8  0
0.6  0.8  0
0.6  0.76  0
0.64  0.76  0
0.6  0.8  0
0.64  0.8  0
0.64  0.76  0
0.68  0.76  0
0.64  0.8  0
0.68  0.8  0
0.44  0.68  0
0.48  0.68  0
0.44  0.72  0
0.48  0.72  0
0.48  0.68  0
0.52  0.68  0
0.48  0.72  0
0.52  0.72  0
0.52  0.68  0
0.56  0.68  0
0.52  0.72  0
0.56  0.72  0
0.44  0.72  0
0.48  0.72  0
0.44  0.76  0
0.48  0.76  0
0.48  0.72  0
0.52  0.72  0
0.48  0.76  0
0.52  0.76  0
0.52  0.72  0
0.56  0.72  0
0.52  0.76  0
0.56  0.76  0
0.44  0.76  0
0.48  0.76  0
0.44  0.8  0
0.48  0.8  0
0.48  0.76  0
0.52  0.76  0
0.48  0.8  0
0.52  0.8  0
0.52  0.76  0
0.56  0.76  0
0.52  0.8  0
0.56  0.8  0
0.32  0.68  0
0.36  0.68  0
0.32  0.72  0
0.36  0.72  0
0.36  0.68  0
0.4  0.68  0
0.36  0.72  0
0.4  0.72  0
0.4  0.68  0
0.44  0.68  0
0.4  0.72  0
0.44  0.72  0
0.32  0.72  0
0.36  0.72  0
0.32  0.76  0
0.36  0.76  0
0.36  0.72  0
0.4  0.72  0
0.36  0.76  0
0.4  0.76  0
0.4  0.72  0
0.44  0.72  0
0.4  0.76  0
0.44  0.76  0
0.32  0.76  0
0.36  0.76  0
0.32  0.8  0
0.36  0.8  0
0.36  0.76  0
0.4  0.76  0
0.36  0.8  0
0.4  0.8  0
0.4  0.76  0
0.44  0.76  0
0.4  0.8  0
0.44  0.8  0
0.32  0.8  0
0.36  0.8  0
0.32  0.84  0
0.36  0.84  0
0.36  0.8  0
0.4  0.8  0
0.36  0.84  0
0.4  0.84  0
0.4  0.8  0
0.44  0.8  0
0.4  0.84  0
0.44  0.84  0
0.32  0.84  0
0.36  0.84  0
0.32  0.88  0
0.36  0.88  0
0.36  0.84  0
0.4  0.84  0
0.36  0.88  0
0.4  0.88  0
0.4  0.84  0
0.44  0.84  0
0.4  0.88  0
0.44  0.88  0
0.32  0.88  0
0.36  0.88  0
0.32  0.92  0
0.36  0.92  0
0.36  0.88  0
0.4  0.88  0
0.36  0.92  0
0.4  0.92  0
0.4  0.88  0
0.44  0.88  0
0.4  0.92  0
0.44  0.92  0
0.44  0.8  0
0.48  0.8  0
0.44  0.84  0
0.48  0.84  0
0.48  0.8  0
0.52  0.8  0
0.48  0.84  0
0.52  0.84  0
0.52  0.8  0
0.56  0.8  0
0.52  0.84  0
0.56  0.84  0
0.44  0.84  0
0.48  0.84  0
0.44  0.88  0
0.48  0.88  0
0.48  0.84  0
0.52  0.84  0
0.48  0.88  0
0.52  0.88  0
0.52  0.84  0
0.56  0.84  0
0.52  0.88  0
0.56  0.88  0
0.44  0.88  0
0.48  0.88  0
0.44  0.92  0
0.48  0.92  0
0.48  0.88  0
0.52  0.88  0
0.48  0.92  0
0.52  0.92  0
0.52  0.88  0
0.56  0.88  0
0.52  0.92  0
0.56  0.92  0
0.56  0.8  0
0.6  0.8  0
0.56  0.84  0
0.6  0.84  0
0.6  0.8  0
0.64  0.8  0
0.6  0.84  0
0.64  0.84  0
0.64  0.8  0
0.68  0.8  0
0.64  0.84  0
0.68  0.84  0
0.56  0.84  0
0.6  0.84  0
0.56  0.88  0
0.6  0.88  0
0.6  0.84  0
0.64  0.84  0
0.6  0.88  0
0.64  0.88  0
0.64  0.84  0
0.68  0.84  0
0.64  0.88  0
0.68  0.88  0
0.56  0.88  0
0.6  0.88  0
0.56  0.92  0
0.6  0.92  0
0.6  0.88  0
0.64  0.88  0
0.6  0.92  0
0.64  0.92  0
0.64  0.88  0
0.68  0.88  0
0.64  0.92  0
0.68  0.92  0
0.64  0.92  0
0.68  0.92  0
0.64  0.96  0
0.68  0.96  0
0.6  0.92  0
0.64  0.92  0
0.6  0.96  0
0.64  0.96  0
0.56  0.92  0
0.6  0.92  0
0.56  0.96  0
0.6  0.96  0
0.56  0.96  0
0.6  0.96  0
0.56  1  0
0.6  1  0
0.6  0.96  0
0.64  0.96  0
0.6  1  0
0.64  1  0
0.64  0.96  0
0.68  0.96  0
0.64  1  0
0.68  1  0
0.44  0.96  0
0.48  0.96  0
0.44  1  0
0.48  1  0
0.48  0.96  0
0.52  0.96  0
0.48  1  0
0.52  1  0
0.52  0.96  0
0.56  0.96  0
0.52  1  0
0.56  1  0
0.52  0.92  0
0.56  0.92  0
0.52  0.96  0
0.56  0.96  0
0.48  0.92  0
0.52  0.92  0
0.48  0.96  0
0.52  0.96  0
0.44  0.92  0
0.48  0.92  0
0.44  0.96  0
0.48  0.96  0
0.4  0.92  0
0.44  0.92  0
0.4  0.96  0
0.44  0.96  0
0.36  0.92  0
0.4  0.92  0
0.36  0.96  0
0.4  0.96  0
0.32  0.92  0
0.36  0.92  0
0.32  0.96  0
0.36  0.96  0
0.32  0.96  0
0.36  0.96  0
0.32  1  0
0.36  1  0
0.36  0.96  0
0.4  0.96  0
0.36  1  0
0.4  1  0
0.4  0.96  0
0.44  0.96  0
0.4  1  0
0.44  1  0
0.2  0.96  0
0.24  0.96  0
0.2  1  0
0.24  1  0
0.24  0.96  0
0.28  0.96  0
0.24  1  0
0.28  1  0
0.28  0.96  0
0.32  0.96  0
0.28  1  0
0.32  1  0
0.28  0.92  0
0.32  0.92  0
0.28  0.96  0
0.32  0.96  0
0.24  0.92  0
0.28  0.92  0
0.24  0.96  0
0.28  0.96  0
0.2  0.92  0
0.24  0.92  0
0.2  0.96  0
0.24  0.96  0
0.16  0.92  0
0.2  0.92  0
0.16  0.96  0
0.2  0.96  0
0.12  0.92  0
0.16  0.92  0
0.12  0.96  0
0.16  0.96  0
0.08  0.92  0
0.12  0.92  0
0.08  0.96  0
0.12  0.96  0
0.08  0.96  0
0.12  0.96  0
0.08  1  0
0.12  1  0
0.12  0.96  0
0.16  0.96  0
0.12  1  0
0.16  1  0
0.16  0.96  0
0.2  0.96  0
0.16  1  0
0.2  1  0
-3.46945e-17  0.96  0
0.04  0.96  0
-3.46945e-17  1  0
0.04  1  0
0.04  0.96  0
0.08  0.96  0
0.04  1  0
0.08  1  0
0.04  0.92  0
0.08  0.92  0
0.04  0.96  0
0.08  0.96  0
-3.46945e-17  0.92  0
0.04  0.92  0
-3.46945e-17  0.96  0
0.04  0.96  0
-3.46945e-17  0.88  0
0.04  0.88  0
-3.46945e-17  0.92  0
0.04  0.92  0
0.04  0.88  0
0.08  0.88  0
0.04  0.92  0
0.08  0.92  0
0.04  0.84  0
0.08  0.84  0
0.04  0.88  0
0.08  0.88  0
-3.46945e-17  0.84  0
0.04  0.84  0
-3.46945e-17  0.88  0
0.04  0.88  0
-3.46945e-17  0.8  0
0.04  0.8  0
-3.46945e-17  0.84  0
0.04  0.84  0
0.04  0.8  0
0.08  0.8  0
0.04  0.84  0
0.08  0.84  0
0.08  0.8  0
0.12  0.8  0
0.08  0.84  0
0.12  0.84  0
0.12  0.8  0
0.16  0.8  0
0.12  0.84  0
0.16  0.84  0
0.16  0.8  0
0.2  0.8  0
0.16  0.84  0
0.2  0.84  0
0.08  0.84  0
0.12  0.84  0
0.08  0.88  0
0.12  0.88  0
0.12  0.84  0
0.16  0.84  0
0.12  0.88  0
0.16  0.88  0
0.16  0.84  0
0.2  0.84  0
0.16  0.88  0
0.2  0.88  0
0.08  0.88  0
0.12  0.88  0
0.08  0.92  0
0.12  0.92  0
0.12  0.88  0
0.16  0.88  0
0.12  0.92  0
0.16  0.92  0
0.16  0.88  0
0.2  0.88  0
0.16  0.92  0
0.2  0.92  0
0.2  0.8  0
0.24  0.8  0
0.2  0.84  0
0.24  0.84  0
0.24  0.8  0
0.28  0.8  0
0.24  0.84  0
0.28  0.84  0
0.28  0.8  0
0.32  0.8  0
0.28  0.84  0
0.32  0.84  0
0.2  0.84  0
0.24  0.84  0
0.2  0.88  0
0.24  0.88  0
0.24  0.84  0
0.28  0.84  0
0.24  0.88  0
0.28  0.88  0
0.28  0.84  0
0.32  0.84  0
0.28  0.88  0
0.32  0.88  0
0.2  0.88  0
0.24  0.88  0
0.2  0.92  0
0.24  0.92  0
0.24  0.88  0
0.28  0.88  0
0.24  0.92  0
0.28  0.92  0
0.28  0.88  0
0.32  0.88  0
0.28  0.92  0
0.32  0.92  0
0.2  0.68  0
0.24  0.68  0
0.2  0.72  0
0.24  0.72  0
0.24  0.68  0
0.28  0.68  0
0.24  0.72  0
0.28  0.72  0
0.28  0.68  0
0.32  0.68  0
0.28  0.72  0
0.32  0.72  0
0.2  0.72  0
0.24  0.72  0
0.2  0.76  0
0.24  0.76  0
0.24  0.72  0
0.28  0.72  0
0.24  0.76  0
0.28  0.76  0
0.28  0.72  0
[...]
CELL_DATA 625

SCALARS Q float 5
LOOKUP_TABLE default
1.5 -9.02295e-10 -1.15206e-09 0 1.5 
1.5 3.31512e-11 2.2429e-11 0 1.5 
1.5 -9.40152e-10 -7.04255e-10 0 1.5 
1.5 3.86541e-09 3.47609e-09 0 1.5 
1.5 -9.50073e-09 -9.67315e-09 0 1.5 
1.5 1.58421e-08 1.75753e-08 0 1.5 
1.5 -3.30135e-08 -3.77449e-08 0 1.5 
1.5 1.01868e-08 2.58963e-08 0 1.5 
1.5 -5.62757e-09 -1.33366e-08 0 1.5 
1.5 2.72603e-09 5.28831e-09 0 1.5 
1.5 -2.9918e-07 -6.24132e-07 0 1.5 
1.5 7.88436e-08 1.78719e-07 0 1.5 
1.5 -2.84788e-08 -6.12028e-08 0 1.5 
1.5 7.5444e-08 7.85544e-08 0 1.5 
1.5 -2.87648e-07 -2.97827e-07 0 1.5 
1.5 1.32172e-06 1.37176e-06 0 1.5 
1.49998 -6.13697e-05 -6.17974e-05 0 1.49998 
1.5 1.57261e-05 1.57385e-05 0 1.5 
1.5 -3.63993e-06 -3.7136e-06 0 1.5 
1.5 1.66639e-05 1.66781e-05 0 1.5 
1.5 -3.65575e-06 -3.5998e-06 0 1.5 
1.5 7.15565e-07 7.22346e-07 0 1.5 
1.5 -4.52714e-06 -4.45885e-06 0 1.5 
1.5 9.20632e-07 8.70458e-07 0 1.5 
1.5 -1.78535e-07 -1.66191e-07 0 1.5 
1.5 9.02423e-07 9.73328e-07 0 1.5 
1.5 -2.9684e-07 -3.36617e-07 0 1.5 
1.5 1.27139e-07 1.45951e-07 0 1.5 
1.5 -1.70886e-07 -1.91781e-07 0 1.5 
1.5 7.65362e-08 9.06816e-08 0 1.5 
1.5 -4.32562e-08 -4.7875e-08 0 1.5 
1.5 5.66744e-08 6.13838e-08 0 1.5 
1.5 -3.32443e-08 -3.64597e-08 0 1.5 
1.5 1.7362e-08 1.77686e-08 0 1.5 
1.5 -9.77081e-09 -9.09188e-09 0 1.5 
1.5 4.19121e-09 2.40694e-09 0 1.5 
1.5 -1.28797e-08 -6.09837e-09 0 1.5 
1.5 2.06486e-08 2.00138e-08 0 1.5 
1.5 -5.92186e-08 -5.62404e-08 0 1.5 
1.5 3.129e-08 1.4414e-08 0 1.5 
1.5 -7.8511e-08 -4.1084e-08 0 1.5 
1.5 1.80796e-07 1.81668e-07 0 1.5 
1.5 -5.86392e-07 -5.55769e-07 0 1.5 
1.5 2.34538e-07 1.2838e-07 0 1.5 
1.5 -6.00855e-07 -3.28236e-07 0 1.5 
1.5 1.68693e-06 1.52788e-06 0 1.5 
1.49998 -5.83669e-05 -5.52805e-05 0 1.49998 
1.50001 1.83524e-05 1.73713e-05 0 1.50001 
1.5 -5.59586e-06 -5.2814e-06 0 1.5 
1.50001 1.88725e-05 1.84972e-05 0 1.50001 
1.5 -5.67108e-06 -5.62717e-06 0 1.5 
1.5 1.77624e-06 1.76675e-06 0 1.5 
1.5 -4.57474e-06 -4.68491e-06 0 1.5 
1.5 1.37545e-06 1.45348e-06 0 1.5 
1.5 -4.77342e-07 -5.03876e-07 0 1.5 
1.50024 0.000636541 0.000650293 0 1.50024 
1.49986 -0.000423747 -0.00041142 0 1.49986 
1.50006 0.000172148 0.000164079 0 1.50006 
1.49983 -0.000510206 -0.000504656 0 1.49983 
1.50006 0.000197854 0.000193218 0 1.50006 
1.49998 -6.32485e-05 -6.15725e-05 0 1.49998 
1.50006 0.000201925 0.000201893 0 1.50006 
1.49998 -6.18994e-05 -6.1446e-05 0 1.49998 
1.5 1.68587e-05 1.68495e-05 0 1.5 
1.50478 0.013972 0.0146535 0 1.50478 
1.49761 -0.00743864 -0.0074017 0 1.49761 
1.50016 0.000742896 0.000624341 0 1.50016 
1.49758 -0.00701872 -0.00781766 0 1.49758 
1.50016 0.00065221 0.000737047 0 1.50016 
1.50029 0.000802857 0.000806286 0 1.50029 
1.50036 0.0010667 0.00138074 0 1.50036 
1.50024 0.000664937 0.000655716 0 1.50024 
1.49983 -0.000507066 -0.00051292 0 1.49983 
1.44686 -0.115709 -0.161813 0 1.44686 
1.48762 -0.0317363 -0.0365587 0 1.48762 
1.50976 0.0237414 0.029726 0 1.50976 
1.4973 -0.00691362 -0.00850828 0 1.4973 
1.5098 0.0225112 0.0316306 0 1.5098 
1.50325 0.0095656 0.0100199 0 1.50325 
1.50861 0.0185816 0.0292617 0 1.50861 
1.50103 0.00362463 0.00285065 0 1.50103 
1.49782 -0.00599879 -0.00714538 0 1.49782 
1.36185 -0.165616 -0.492668 0 1.36185 
1.38189 -0.182279 -0.406533 0 1.38189 
1.40824 -0.173267 -0.296507 0 1.40824 
1.42023 -0.0857806 -0.287424 0 1.42023 
1.44141 -0.0852666 -0.202536 0 1.44141 
1.46953 -0.0558627 -0.100545 0 1.46953 
1.4796 -0.0232734 -0.0731849 0 1.4796 
1.49406 -0.0096993 -0.0195442 0 1.49406 
1.50662 0.0115861 0.023745 0 1.50662 
1.50806 0.00670484 0.0310278 0 1.50806 
1.50894 0.0121014 0.0330803 0 1.50894 
1.50463 0.0085455 0.0161753 0 1.50463 
1.50213 0.0031034 0.00772552 0 1.50213 
1.49906 -0.000618962 -0.00389848 0 1.49906 
1.49774 -0.00388799 -0.00817484 0 1.49774 
1.49833 -0.00179561 -0.00628301 0 1.49833 
1.49932 -0.00124043 -0.00235956 0 1.49932 
1.5005 0.000730542 0.00193405 0 1.5005 
1.49879 -0.00210542 -0.00460162 0 1.49879 
1.49845 -0.00418685 -0.00502506 0 1.49845 
1.50056 0.00152333 0.00201547 0 1.50056 
1.49945 -0.00149365 -0.00164956 0 1.49945 
1.50061 0.00160639 0.00208944 0 1.50061 
1.49995 -0.000125612 -0.000253423 0 1.49995 
1.50041 0.00100657 0.00134773 0 1.50041 
1.49984 -0.000419254 -0.000582507 0 1.49984 
1.49997 -7.41403e-05 -5.19247e-05 0 1.49997 
1.50011 0.000300339 0.00024263 0 1.50011 
1.49985 -0.000425078 -0.000436168 0 1.49985 
1.50006 0.000194486 0.000198745 0 1.50006 
1.4999 -0.000268858 -0.000269962 0 1.4999 
1.50006 0.000170059 0.000177013 0 1.50006 
1.49998 -6.17065e-05 -6.31773e-05 0 1.49998 
1.50004 0.000119374 0.000125106 0 1.50004 
1.49998 -5.72808e-05 -6.0037e-05 0 1.49998 
1.50001 1.83326e-05 1.87038e-05 0 1.50001 
1.5 -5.37445e-06 -5.73685e-06 0 1.5 
1.50001 1.76568e-05 1.94004e-05 0 1.50001 
1.49999 -4.17168e-05 -4.65881e-05 0 1.49999 
1.5 9.67703e-06 1.91664e-05 0 1.5 
1.5 -3.91221e-06 -7.61116e-06 0 1.5 
1.5 1.18603e-06 2.3115e-06 0 1.5 
1.50004 9.06819e-05 0.000240851 0 1.50004 
1.5 -1.26803e-05 -3.22734e-05 0 1.5 
1.5 -1.31907e-05 -2.62881e-05 0 1.5 
1.50002 4.7354e-05 4.87576e-05 0 1.50002 
1.50003 8.62624e-05 0.000132574 0 1.50003 
1.49984 -0.000385915 -0.000569801 0 1.49984 
1.49997 2.50116e-05 -0.000159281 0 1.49997 
1.50042 0.000654227 0.00161662 0 1.50042 
1.50052 0.000453384 0.00201534 0 1.50052 
1.49991 -5.89866e-05 -0.000463748 0 1.49991 
1.49989 -0.000164203 -0.000774764 0 1.49989 
1.49999 -4.45752e-05 -0.000114439 0 1.49999 
1.5002 0.000115527 0.00158231 0 1.5002 
1.50009 7.63537e-05 0.000851217 0 1.50009 
1.5 6.45543e-05 0.000310381 0 1.5 
1.50026 -3.27763e-05 0.000927651 0 1.50026 
1.49996 -0.000111516 -0.000309424 0 1.49996 
1.49954 -0.000229593 -0.00196664 0 1.49954 
1.49916 -0.000193785 -0.00348601 0 1.49916 
1.49932 0.000162484 -0.00283667 0 1.49932 
1.49964 -0.000179786 -0.00151458 0 1.49964 
1.50015 -1.65952e-05 0.00110542 0 1.50015 
1.50025 -9.11555e-05 0.00184581 0 1.50025 
1.5003 6.10632e-05 0.00225315 0 1.5003 
1.49996 -3.86809e-05 -0.000143105 0 1.49996 
1.50005 -6.92879e-05 0.000433839 0 1.50005 
1.49995 3.44868e-05 -0.000279108 0 1.49995 
1.50027 5.60143e-05 0.000981074 0 1.50027 
1.499 0.000390162 -0.00360989 0 1.499 
1.49941 0.00108058 -0.00220761 0 1.49941 
1.50231 -0.00448034 0.00899914 0 1.50231 
1.5012 -0.00207542 0.00421049 0 1.5012 
1.50768 0.00157927 0.0282015 0 1.50768 
1.50345 0.000349948 0.0120332 0 1.50345 
1.49764 -0.00316691 -0.00869107 0 1.49764 
1.49427 -0.00135899 -0.0204691 0 1.49427 
1.49426 -0.00185432 -0.0208195 0 1.49426 
1.50488 -0.00451166 0.0188687 0 1.50488 
1.50661 -0.0021064 0.025529 0 1.50661 
1.50682 0.000633535 0.0266744 0 1.50682 
1.49951 0.00151561 -0.00193281 0 1.49951 
1.49971 0.000406032 -0.00114077 0 1.49971 
1.4999 0.000191791 -0.000551453 0 1.4999 
1.49711 -0.00375908 -0.0103585 0 1.49711 
1.50161 -2.16533e-05 0.00628427 0 1.50161 
1.50492 0.00234182 0.0193419 0 1.50492 
1.50685 0.00389605 0.0263944 0 1.50685 
1.50584 0.00359002 0.0223185 0 1.50584 
1.50439 0.00336432 0.0167248 0 1.50439 
1.49917 -0.000550826 -0.00319861 0 1.49917 
1.49855 -0.000717515 -0.00547582 0 1.49855 
1.49826 -0.00092231 -0.00668866 0 1.49826 
1.32798 -0.0346087 -0.634574 0 1.32798 
1.33211 -0.0927623 -0.612613 0 1.33211 
1.34275 -0.139729 -0.564686 0 1.34275 
1.38602 -0.0274113 -0.422234 0 1.38602 
1.39022 -0.0596236 -0.401385 0 1.39022 
1.40296 -0.0772489 -0.354054 0 1.40296 
1.45144 -0.018296 -0.182087 0 1.45144 
1.45719 -0.0249933 -0.159332 0 1.45719 
1.46772 -0.0250604 -0.119953 0 1.46772 
1.33927 0.0803623 -0.571115 0 1.33927 
1.34618 0.0864686 -0.581523 0 1.34618 
1.33557 0.0375409 -0.617442 0 1.33557 
1.40708 0.0742361 -0.347008 0 1.40708 
1.39925 0.0484054 -0.384738 0 1.39925 
1.38856 0.00317224 -0.417981 0 1.38856 
1.46351 0.033574 -0.139265 0 1.46351 
1.45285 0.0121465 -0.178334 0 1.45285 
1.45029 -0.00517493 -0.188473 0 1.45029 
1.4755 0.0311344 -0.0930064 0 1.4755 
1.48072 0.0122696 -0.0688648 0 1.48072 
1.40845 0.0188477 -0.312545 0 1.40845 
1.40823 0.0587776 -0.323583 0 1.40823 
1.32473 0.0554455 -0.582179 0 1.32473 
1.31821 0.0197779 -0.589336 0 1.31821 
1.23776 0.00966296 -0.809978 0 1.23776 
1.25238 0.0202618 -0.786634 0 1.25238 
1.20968 -0.0322719 -0.897083 0 1.20968 
1.19346 -0.0118363 -0.923966 0 1.19346 
1.19601 -0.0270635 -0.922902 0 1.19601 
1.20008 -0.0707529 -0.917267 0 1.20008 
1.217 -0.0814622 -0.892294 0 1.217 
1.2558 -0.0764615 -0.845647 0 1.2558 
1.31037 -0.05373 -0.784285 0 1.31037 
1.23502 -0.0182058 -0.854965 0 1.23502 
1.27328 0.0175198 -0.800545 0 1.27328 
1.31948 0.0387604 -0.741507 0 1.31948 
1.27723 0.0441202 -0.749621 0 1.27723 
1.30334 0.0828124 -0.719589 0 1.30334 
1.31702 0.0688367 -0.716079 0 1.31702 
1.35122 -0.0525572 -0.729227 0 1.35122 
1.34015 -0.137987 -0.728031 0 1.34015 
1.31987 -0.249814 -0.722067 0 1.31987 
1.33598 -0.0262509 -0.716259 0 1.33598 
1.32672 -0.156123 -0.709994 0 1.32672 
1.31706 -0.234101 -0.695458 0 1.31706 
1.31199 -0.0349861 -0.727008 0 1.31199 
1.31111 -0.129394 -0.711231 0 1.31111 
1.31748 -0.201412 -0.666261 0 1.31748 
1.35671 -0.242234 -0.886552 0 1.35671 
1.39199 -0.310461 -0.831821 0 1.39199 
1.37169 -0.440722 -0.728976 0 1.37169 
1.33605 -0.146489 -0.849847 0 1.33605 
1.37607 -0.219426 -0.776534 0 1.37607 
1.36444 -0.376323 -0.704431 0 1.36444 
1.34021 -0.0938297 -0.798717 0 1.34021 
1.35024 -0.139773 -0.762845 0 1.35024 
1.34411 -0.312282 -0.701219 0 1.34411 
1.22596 -0.140185 -0.862244 0 1.22596 
1.25829 -0.221957 -0.89568 0 1.25829 
1.29904 -0.218697 -0.910885 0 1.29904 
1.22162 -0.139248 -0.877724 0 1.22162 
1.25521 -0.202114 -0.87623 0 1.25521 
1.29545 -0.189199 -0.875028 0 1.29545 
1.21603 -0.123302 -0.891063 0 1.21603 
1.25037 -0.151731 -0.872821 0 1.25037 
1.30059 -0.150509 -0.827962 0 1.30059 
1.20982 -0.0704033 -0.889348 0 1.20982 
1.21435 -0.0204113 -0.880601 0 1.21435 
1.21938 -0.013461 -0.858752 0 1.21938 
1.21883 -0.0610137 -0.865777 0 1.21883 
1.21902 -0.0493817 -0.84601 0 1.21902 
1.21973 -0.00895544 -0.84467 0 1.21973 
1.21225 -0.00382104 -0.831212 0 1.21225 
1.2083 -0.0330576 -0.817362 0 1.2083 
1.1869 -0.03458 -0.789803 0 1.1869 
1.19732 -0.0133953 -0.771567 0 1.19732 
1.21729 0.00023295 -0.448944 0 1.21729 
1.22468 0.0375046 -0.523833 0 1.22468 
1.22886 0.0809089 -0.666033 0 1.22886 
1.23791 0.0904303 -0.937795 0 1.23791 
1.33377 -0.20404 -1.51183 0 1.33377 
1.20036 -0.0623478 -0.850416 0 1.20036 
1.26456 -0.137898 -0.990391 0 1.26456 
1.36942 -0.293997 -1.08013 0 1.36942 
1.22789 -0.111184 -0.841222 0 1.22789 
1.26969 -0.199476 -0.910614 0 1.26969 
1.31521 -0.255889 -0.97801 0 1.31521 
1.50406 -0.900282 -1.37779 0 1.50406 
1.50166 -1.10433 -0.716001 0 1.50166 
1.4467 -0.993935 -0.403991 0 1.4467 
1.43432 -0.441475 -1.09577 0 1.43432 
1.44816 -0.653575 -0.892739 0 1.44816 
1.42027 -0.788384 -0.605884 0 1.42027 
1.38402 -0.345379 -0.96255 0 1.38402 
1.41438 -0.420192 -0.873768 0 1.41438 
1.39514 -0.59119 -0.696814 0 1.39514 
1.4145 -0.894917 -0.293646 0 1.4145 
1.39025 -0.826718 -0.212632 0 1.39025 
1.36674 -0.784486 -0.148658 0 1.36674 
1.34687 -0.750449 -0.102733 0 1.34687 
1.33375 -0.72664 -0.0873725 0 1.33375 
1.32318 -0.709431 -0.09644 0 1.32318 
1.32012 -0.680604 -0.0901109 0 1.32012 
1.35018 -0.556024 -0.0579975 0 1.35018 
1.41354 -0.323448 -0.0201469 0 1.41354 
1.3974 -0.774354 -0.451569 0 1.3974 
1.38209 -0.741015 -0.356557 0 1.38209 
1.36425 -0.731392 -0.289055 0 1.36425 
1.34572 -0.720081 -0.231361 0 1.34572 
1.3275 -0.717247 -0.189001 0 1.3275 
1.31735 -0.705134 -0.16834 0 1.31735 
1.32438 -0.653713 -0.144322 0 1.32438 
1.36236 -0.510209 -0.0979057 0 1.36236 
1.42402 -0.284655 -0.0461773 0 1.42402 
1.37822 -0.67108 -0.542552 0 1.37822 
1.37069 -0.663757 -0.452629 0 1.37069 
1.35786 -0.65784 -0.384445 0 1.35786 
1.34441 -0.662701 -0.323063 0 1.34441 
1.32944 -0.673311 -0.266077 0 1.32944 
1.31769 -0.679741 -0.226063 0 1.31769 
1.33006 -0.615566 -0.188948 0 1.33006 
1.37513 -0.451575 -0.134315 0 1.37513 
1.43715 -0.226627 -0.0651753 0 1.43715 
1.35513 -0.559241 -0.609197 0 1.35513 
1.35847 -0.575003 -0.521499 0 1.35847 
1.35286 -0.586244 -0.451902 0 1.35286 
1.34213 -0.604359 -0.382063 0 1.34213 
1.32808 -0.629389 -0.330347 0 1.32808 
1.31545 -0.642931 -0.290616 0 1.31545 
1.33555 -0.561 -0.238981 0 1.33555 
1.39219 -0.369406 -0.15582 0 1.39219 
1.45792 -0.146373 -0.0601142 0 1.45792 
1.3414 -0.466725 -0.642992 0 1.3414 
1.3403 -0.494536 -0.577987 0 1.3403 
1.34029 -0.517332 -0.512052 0 1.34029 
1.33307 -0.548434 -0.447967 0 1.33307 
1.31818 -0.588165 -0.400212 0 1.31818 
1.31531 -0.588912 -0.349299 0 1.31531 
1.35476 -0.468728 -0.254621 0 1.35476 
1.42242 -0.257408 -0.132937 0 1.42242 
1.48405 -0.0558769 -0.0261084 0 1.48405 
1.3404 -0.409087 -0.634324 0 1.3404 
1.3387 -0.437731 -0.579527 0 1.3387 
1.3387 -0.455476 -0.527148 0 1.3387 
1.32902 -0.499133 -0.478409 0 1.32902 
1.31633 -0.543322 -0.432548 0 1.31633 
1.3352 -0.498719 -0.347226 0 1.3352 
1.39241 -0.337245 -0.214692 0 1.39241 
1.45905 -0.133069 -0.0792567 0 1.45905 
1.50274 0.00967171 0.00402555 0 1.50274 
1.32123 -0.335735 -0.66538 0 1.32123 
1.33109 -0.37771 -0.597172 0 1.33109 
1.3334 -0.407497 -0.544332 0 1.3334 
1.32242 -0.461645 -0.502905 0 1.32242 
1.32821 -0.467784 -0.429744 0 1.32821 
1.37279 -0.363636 -0.298551 0 1.37279 
1.43649 -0.187661 -0.143108 0 1.43649 
1.49094 -0.0270434 -0.0224665 0 1.49094 
1.50906 0.0307351 0.0185775 0 1.50906 
1.31298 -0.283091 -0.669384 0 1.31298 
1.31931 -0.312259 -0.624693 0 1.31931 
1.32134 -0.357724 -0.572493 0 1.32134 
1.32898 -0.387447 -0.493955 0 1.32898 
1.36592 -0.333537 -0.360435 0 1.36592 
1.42461 -0.198502 -0.193163 0 1.42461 
1.48153 -0.0512075 -0.0481269 0 1.48153 
1.50927 0.0294873 0.0216681 0 1.50927 
1.5028 0.0086598 0.00814527 0 1.5028 
1.32739 -0.237078 -0.613084 0 1.32739 
1.33737 -0.259896 -0.556557 0 1.33737 
1.34942 -0.283499 -0.48082 0 1.34942 
1.37954 -0.260757 -0.358139 0 1.37954 
1.42904 -0.168525 -0.199404 0 1.42904 
1.48069 -0.050272 -0.0536725 0 1.48069 
1.50918 0.025628 0.0250563 0 1.50918 
1.50469 0.0143048 0.0138234 0 1.50469 
1.49766 -0.0076111 -0.00672281 0 1.49766 
1.49996 -0.00077585 0.00118235 0 1.49996 
1.49897 -0.00333013 -0.00274901 0 1.49897 
1.50049 0.00168476 0.00120245 0 1.50049 
1.49799 -0.00667581 -0.00533219 0 1.49799 
1.50058 0.00208315 0.00148624 0 1.50058 
1.49991 -0.000380414 -0.000211045 0 1.49991 
1.50036 0.00141473 0.00106146 0 1.50036 
1.50009 0.000173472 0.000239467 0 1.50009 
1.49992 -0.00023016 -0.000229843 0 1.49992 
1.49984 -0.000552828 -0.000363384 0 1.49984 
1.50004 0.000152728 9.40359e-05 0 1.50004 
1.49999 -3.99399e-05 -2.36265e-05 0 1.49999 
1.5 2.03751e-05 -1.7395e-05 0 1.5 
1.50001 1.65218e-05 2.35274e-05 0 1.50001 
1.5 -8.56811e-06 -9.69409e-06 0 1.5 
1.50004 0.000107887 0.000102362 0 1.50004 
1.49999 -3.88472e-05 -3.6107e-05 0 1.49999 
1.5 1.22778e-05 1.1264e-05 0 1.5 
1.5 -3.56802e-06 -3.15906e-06 0 1.5 
1.5 1.1324e-06 6.29897e-07 0 1.5 
1.5 -6.18654e-07 -5.22488e-07 0 1.5 
1.5 2.63981e-06 2.8236e-06 0 1.5 
1.5 1.09656e-05 6.28516e-06 0 1.5 
1.5 -3.98852e-06 -1.35397e-06 0 1.5 
1.5 1.0416e-05 4.48778e-06 0 1.5 
1.49999 -2.92203e-05 -2.06869e-05 0 1.49999 
1.5 -1.5961e-05 -2.75053e-06 0 1.5 
1.5 3.686e-06 -1.21791e-07 0 1.5 
1.49999 -4.85698e-05 -1.14523e-05 0 1.49999 
1.50003 0.000123479 4.92908e-05 0 1.50003 
1.50011 0.000496953 0.000269371 0 1.50011 
1.50017 0.000559893 0.000216091 0 1.50017 
1.49991 -0.000323788 -0.000131908 0 1.49991 
1.50052 0.00186364 0.000870911 0 1.50052 
1.49987 -0.000462613 -0.000198289 0 1.49987 
1.50002 9.144e-05 3.17169e-05 0 1.50002 
1.50014 0.000408771 0.000399557 0 1.50014 
1.49993 -0.000241059 -0.000189354 0 1.49993 
1.50003 9.08406e-05 6.71699e-05 0 1.50003 
1.50321 0.0119292 0.00567473 0 1.50321 
1.50697 0.0255209 0.0105262 0 1.50697 
1.49785 -0.00801904 -0.00343541 0 1.49785 
1.50898 0.03189 0.0161174 0 1.50898 
1.50132 0.00449676 0.00221751 0 1.50132 
1.49855 -0.00512697 -0.00248951 0 1.49855 
1.50612 0.0212255 0.0118136 0 1.50612 
1.49821 -0.00653268 -0.00289818 0 1.49821 
1.50008 0.00045197 -0.000196607 0 1.50008 
1.47902 -0.0789677 -0.00245673 0 1.47902 
1.50888 0.0349152 -0.00144919 0 1.50888 
1.50151 0.00575126 -0.000237929 0 1.50151 
1.48246 -0.0638544 -0.00988749 0 1.48246 
1.50889 0.0353669 0.00249912 0 1.50889 
1.50172 0.00626024 0.0012159 0 1.50172 
1.49114 -0.0302991 -0.0100084 0 1.49114 
1.50976 0.0372125 0.00951084 0 1.50976 
1.49975 -0.00137321 0.000305612 0 1.49975 
1.49857 -0.00554825 0.000669305 0 1.49857 
1.50049 0.0019189 -0.000336807 0 1.50049 
1.49988 -0.00047362 9.98976e-05 0 1.49988 
1.49828 -0.0066869 -0.000488927 0 1.49828 
1.50061 0.00242746 6.57211e-06 0 1.50061 
1.49986 -0.000583955 6.19836e-05 0 1.49986 
1.49884 -0.00421961 -0.00144441 0 1.49884 
1.5006 0.0022304 0.000705744 0 1.5006 
1.4998 -0.000755454 -0.000235409 0 1.4998 
1.50005 0.000217841 6.62223e-05 0 1.50005 
1.49999 -7.23236e-05 -1.34069e-05 0 1.49999 
1.5 -1.21947e-05 9.71776e-06 0 1.5 
1.50002 0.000102253 -3.49853e-05 0 1.50002 
1.50003 0.000101514 -2.01256e-05 0 1.50003 
1.5 -2.60595e-05 2.39496e-06 0 1.5 
1.49999 -7.73381e-05 6.18484e-06 0 1.49999 
1.50005 0.000184181 -2.88612e-05 0 1.50005 
1.50003 0.00010884 1.69374e-05 0 1.50003 
1.49999 -4.34872e-05 -2.61352e-06 0 1.49999 
1.5 3.26151e-06 -4.88103e-06 0 1.5 
1.50001 3.36649e-05 2.48277e-05 0 1.50001 
1.49884 -0.00461888 -8.26543e-05 0 1.49884 
1.50035 0.00145161 0.000177927 0 1.50035 
1.49993 -0.000289779 -8.1384e-05 0 1.49993 
1.49914 -0.00332743 -0.000791925 0 1.49914 
1.50032 0.00121688 0.000294079 0 1.50032 
1.4999 -0.000358496 -7.91983e-05 0 1.4999 
1.49898 -0.00377579 0.000418059 0 1.49898 
1.50044 0.00159233 -0.000250819 0 1.50044 
1.49985 -0.000543093 9.3976e-05 0 1.49985 
1.48335 -0.063084 0.00574348 0 1.48335 
1.50689 0.0275534 0.000480858 0 1.50689 
1.50139 0.00530323 -0.000780158 0 1.50139 
1.48156 -0.0719323 -0.00206356 0 1.48156 
1.508 0.0306405 -0.000795823 0 1.508 
1.50063 0.00266247 0.00129587 0 1.50063 
1.47939 -0.0788299 -0.000338241 0 1.47939 
1.50936 0.0355138 -0.00255702 0 1.50936 
1.50053 0.00213037 0.0001427 0 1.50053 
1.5075 0.0262107 -0.0118947 0 1.5075 
1.5028 0.00991443 -0.00511722 0 1.5028 
1.49831 -0.00600802 0.00318813 0 1.49831 
1.49844 -0.00431601 0.00209843 0 1.49844 
1.50756 0.0279683 -0.0102125 0 1.50756 
1.49856 -0.00561887 0.00178619 0 1.49856 
1.48797 -0.0420168 0.0119112 0 1.48797 
1.50809 0.031551 -0.00490676 0 1.50809 
1.50059 0.00177917 -0.00140233 0 1.50059 
1.50045 0.00162194 -0.00092916 0 1.50045 
1.49993 -0.00025336 0.000173933 0 1.49993 
1.5 4.83459e-06 -1.81711e-05 0 1.5 
1.49969 -0.00100025 0.000561569 0 1.49969 
1.50031 0.00107683 -0.000490383 0 1.50031 
1.49987 -0.00046084 0.000207556 0 1.49987 
1.4988 -0.00451729 0.00107404 0 1.4988 
1.5005 0.00192343 -0.000315504 0 1.5005 
1.49986 -0.000546384 4.86041e-05 0 1.49986 
1.50003 0.000126907 2.13984e-06 0 1.50003 
1.5 -3.14624e-05 -2.84705e-06 0 1.5 
1.49999 -5.8176e-05 1.54114e-05 0 1.49999 
1.50004 0.000156075 -6.88939e-05 0 1.50004 
1.5 1.28953e-05 -1.29946e-06 0 1.5 
1.5 -6.78747e-06 8.48105e-07 0 1.5 
1.5 7.79141e-06 -1.87959e-06 0 1.5 
1.49999 -2.37959e-05 9.55602e-06 0 1.49999 
1.5 3.41327e-06 7.37762e-06 0 1.5 
1.5 -1.00191e-06 -1.51231e-06 0 1.5 
1.49989 -0.000389542 -0.000154511 0 1.49989 
1.50002 8.37751e-05 7.33695e-05 0 1.50002 
1.5 -1.65282e-05 -2.52554e-05 0 1.5 
1.50002 8.5791e-05 -3.51204e-05 0 1.50002 
1.49992 -0.000290536 0.000111105 0 1.49992 
1.50024 0.000817807 -0.000253612 0 1.50024 
1.49959 -0.00136821 3.57697e-05 0 1.49959 
1.49951 -0.00189124 0.00312386 0 1.49951 
1.50543 0.0194751 -0.0143166 0 1.50543 
1.50064 0.00167893 -0.00556955 0 1.50064 
1.49884 -0.00388782 0.00133013 0 1.49884 
1.50043 0.00149569 5.31845e-05 0 1.50043 
1.40059 -0.298072 0.0628024 0 1.40059 
1.48028 -0.0639015 0.0345026 0 1.48028 
1.51055 0.0365406 0.00249186 0 1.51055 
1.49692 -0.0129674 0.00332882 0 1.49692 
1.45786 -0.143874 0.105248 0 1.45786 
1.38956 -0.345858 0.202007 0 1.38956 
1.30892 -0.538686 0.241782 0 1.30892 
1.24429 -0.660571 0.227746 0 1.24429 
1.21023 -0.692917 0.165393 0 1.21023 
1.18767 -0.732183 0.0644395 0 1.18767 